atom_style  peri
units       si

###############################################
# Physical Constants
###############################################

include constant.include
variable c equal 21600000.00000000000000000000000000000000
variable hor equal 0.50000000000000000000000000000000
variable s00 equal 0.01250000000000000069388939039072
variable alpha equal 0.10000000000000000555111512312578
variable dens equal 900.00000000000000000000000000000000
variable waterDensity equal 1017.00000000000000000000000000000000
variable airDensity equal 1.00000000000000000000000000000000
variable gravity equal 9.81000000000000049737991503207013
variable Cdo equal 10.00000000000000000000000000000000
variable Cda equal 10.00000000000000000000000000000000

###############################################
# Geometry-related parameters
###############################################

include simbox.include
boundary f f f
atom_modify map array
variable x0 equal 0.00000000000000000000000000000000
variable x1 equal 50.00000000000000000000000000000000
variable y0 equal 0.00000000000000000000000000000000
variable y1 equal 30.00000000000000000000000000000000
variable z0 equal -20.00000000000000000000000000000000
variable z1 equal 20.00000000000000000000000000000000
region boxreg block ${x0} ${x1} ${y0} ${y1} ${z0} ${z1} units box
region boxreg block 0 ${x1} ${y0} ${y1} ${z0} ${z1} units box
region boxreg block 0 50 ${y0} ${y1} ${z0} ${z1} units box
region boxreg block 0 50 0 ${y1} ${z0} ${z1} units box
region boxreg block 0 50 0 30 ${z0} ${z1} units box
region boxreg block 0 50 0 30 -20 ${z1} units box
region boxreg block 0 50 0 30 -20 20 units box
create_box 1 boxreg
Created orthogonal box = (0 0 -20) to (50 30 20)
  1 by 1 by 1 MPI processor grid

###############################################
# Create atoms
###############################################

include atom.include
lattice sc 0.50000000000000000000000000000000
Lattice spacing in x,y,z = 0.5 0.5 0.5
region slab1 block 5.00000000000000000000000000000000 24.75000000000000000000000000000000 5.00000000000000000000000000000000 25.00000000000000000000000000000000 -1.00000000000000000000000000000000 -0.50000000000000000000000000000000 units box
region slab2 block 25.25000000000000000000000000000000 45.00000000000000000000000000000000 5.00000000000000000000000000000000 25.00000000000000000000000000000000 -1.00000000000000000000000000000000 -0.50000000000000000000000000000000 units box
create_atoms 1 region slab1
Created 3280 atoms
  Time spent = 0.0126839 secs
create_atoms 1 region slab2
Created 3280 atoms
  Time spent = 0.011919 secs
set atom 1 volume 0.06544797793781582939676155774578
  1 settings made for volume
set atom 1 mass 58.90318014403424484726201626472175
  1 settings made for mass
set atom 2 volume 0.06428257389242553188068995950744
  1 settings made for volume
set atom 2 mass 57.85431650318297869262096355669200
  1 settings made for mass
set atom 3 volume 0.06488279704186142304855877682712
  1 settings made for volume
set atom 3 mass 58.39451733767528196494822623208165
  1 settings made for mass
set atom 4 volume 0.06464887557701196052484249321424
  1 settings made for volume
set atom 4 mass 58.18398801931076746996041038073599
  1 settings made for mass
set atom 5 volume 0.06601783688890493217993338248561
  1 settings made for volume
set atom 5 mass 59.41605320001443857336198561824858
  1 settings made for mass
set atom 6 volume 0.06516631477710581321627358875048
  1 settings made for volume
set atom 6 mass 58.64968329939523528082645498216152
  1 settings made for mass
set atom 7 volume 0.06547521927967858701435943657998
  1 settings made for volume
set atom 7 mass 58.92769735171072653656665352173150
  1 settings made for mass
set atom 8 volume 0.06599080518714021958981419402335
  1 settings made for volume
set atom 8 mass 59.39172466842619968474537017755210
  1 settings made for mass
set atom 9 volume 0.06561273082518549737418567247005
  1 settings made for volume
set atom 9 mass 59.05145774266694758125595399178565
  1 settings made for mass
set atom 10 volume 0.06626463610521030056510483063903
  1 settings made for volume
set atom 10 mass 59.63817249468927172983967466279864
  1 settings made for mass
set atom 11 volume 0.06505601344938555241625977032527
  1 settings made for volume
set atom 11 mass 58.55041210444699828485681791789830
  1 settings made for mass
set atom 12 volume 0.06506265134206819233941843094726
  1 settings made for volume
set atom 12 mass 58.55638620786137238383162184618413
  1 settings made for mass
set atom 13 volume 0.06596325042328322896256764806822
  1 settings made for volume
set atom 13 mass 59.36692538095490334626447292976081
  1 settings made for mass
set atom 14 volume 0.06531966886411889883223835795434
  1 settings made for volume
set atom 14 mass 58.78770197770700889350337092764676
  1 settings made for mass
set atom 15 volume 0.06484364413900248202970999500394
  1 settings made for volume
set atom 15 mass 58.35927972510223327162748319096863
  1 settings made for mass
set atom 16 volume 0.06674979523056281949244805673516
  1 settings made for volume
set atom 16 mass 60.07481570750653787627015844918787
  1 settings made for mass
set atom 17 volume 0.06490151805468220846950799796105
  1 settings made for volume
set atom 17 mass 58.41136624921399089771512080915272
  1 settings made for mass
set atom 18 volume 0.06516031812999996397639534961854
  1 settings made for volume
set atom 18 mass 58.64428631699996685711084865033627
  1 settings made for mass
set atom 19 volume 0.06498417319137439474019402041449
  1 settings made for volume
set atom 19 mass 58.48575587223695748662066762335598
  1 settings made for mass
set atom 20 volume 0.06596215476950513523224373102494
  1 settings made for volume
set atom 20 mass 59.36593929255462143146360176615417
  1 settings made for mass
set atom 21 volume 0.06517096681279477277115574906929
  1 settings made for volume
set atom 21 mass 58.65387013151529771448622341267765
  1 settings made for mass
set atom 22 volume 0.06561562516718780213587081107107
  1 settings made for volume
set atom 22 mass 59.05406265046902092308300780132413
  1 settings made for mass
set atom 23 volume 0.06617522550392518354556159465574
  1 settings made for volume
set atom 23 mass 59.55770295353266874371911399066448
  1 settings made for mass
set atom 24 volume 0.06477366774602488774803532578517
  1 settings made for volume
set atom 24 mass 58.29630097142239719687495380640030
  1 settings made for mass
set atom 25 volume 0.06506585498334625794480956528787
  1 settings made for volume
set atom 25 mass 58.55926948501163309401817969046533
  1 settings made for mass
set atom 26 volume 0.06581710912855920359021411059075
  1 settings made for volume
set atom 26 mass 59.23539821570328456346032908186316
  1 settings made for mass
set atom 27 volume 0.06511801970947453388482983882568
  1 settings made for volume
set atom 27 mass 58.60621773852707860896771308034658
  1 settings made for mass
set atom 28 volume 0.06583309995253669444359445606096
  1 settings made for volume
set atom 28 mass 59.24978995728302777479257201775908
  1 settings made for mass
set atom 29 volume 0.06477685384534802304212774970438
  1 settings made for volume
set atom 29 mass 58.29916846081322034933691611513495
  1 settings made for mass
set atom 30 volume 0.06573267869776291960626224408770
  1 settings made for volume
set atom 30 mass 59.15941082798662620234608766622841
  1 settings made for mass
set atom 31 volume 0.06526667381116560417986249831301
  1 settings made for volume
set atom 31 mass 58.74000643004904276267552631907165
  1 settings made for mass
set atom 32 volume 0.06641018033066224679483724457896
  1 settings made for volume
set atom 32 mass 59.76916229759601861815099255181849
  1 settings made for mass
set atom 33 volume 0.06491273462831823048979629220412
  1 settings made for volume
set atom 33 mass 58.42146116548640577548212604597211
  1 settings made for mass
set atom 34 volume 0.06621195839240338887332626427451
  1 settings made for volume
set atom 34 mass 59.59076255316305292808465310372412
  1 settings made for mass
set atom 35 volume 0.06634327937892509075012981156760
  1 settings made for volume
set atom 35 mass 59.70895144103258189716143533587456
  1 settings made for mass
set atom 36 volume 0.06508838510368811225426100008917
  1 settings made for volume
set atom 36 mass 58.57954659331930002963417791761458
  1 settings made for mass
set atom 37 volume 0.06408634139790125860969283166924
  1 settings made for volume
set atom 37 mass 57.67770725811113408099117805249989
  1 settings made for mass
set atom 38 volume 0.06616404234909877002390743427895
  1 settings made for volume
set atom 38 mass 59.54763811418889218884942238219082
  1 settings made for mass
set atom 39 volume 0.06495598294619345236533547449653
  1 settings made for volume
set atom 39 mass 58.46038465157410968231488368473947
  1 settings made for mass
set atom 40 volume 0.06585067716508008484055380904465
  1 settings made for volume
set atom 40 mass 59.26560944857207857694447739049792
  1 settings made for mass
set atom 41 volume 0.06624945259268340269631636374470
  1 settings made for volume
set atom 41 mass 59.62450733341506037277213181369007
  1 settings made for mass
set atom 42 volume 0.06566462265745462434374246640800
  1 settings made for volume
set atom 42 mass 59.09816039170916468492578133009374
  1 settings made for mass
set atom 43 volume 0.06534074760943256454659433529741
  1 settings made for volume
set atom 43 mass 58.80667284848930620455575990490615
  1 settings made for mass
set atom 44 volume 0.06410211822861473784929131625177
  1 settings made for volume
set atom 44 mass 57.69190640575326511907405802048743
  1 settings made for mass
set atom 45 volume 0.06518170107006428237728101748871
  1 settings made for volume
set atom 45 mass 58.66353096305785186359571525827050
  1 settings made for mass
set atom 46 volume 0.06692250172272327934930302717476
  1 settings made for volume
set atom 46 mass 60.23025155045095146988387568853796
  1 settings made for mass
set atom 47 volume 0.06620171088196229181033203303741
  1 settings made for volume
set atom 47 mass 59.58153979376606201867616618983448
  1 settings made for mass
set atom 48 volume 0.06494977818749606002235452706373
  1 settings made for volume
set atom 48 mass 58.45480036874645435318598174490035
  1 settings made for mass
set atom 49 volume 0.06528087280561019334346184450624
  1 settings made for volume
set atom 49 mass 58.75278552504917684018437284976244
  1 settings made for mass
set atom 50 volume 0.06484635375837201343163229694255
  1 settings made for volume
set atom 50 mass 58.36171838253481070069028646685183
  1 settings made for mass
set atom 51 volume 0.06610864778040498324074292213481
  1 settings made for volume
set atom 51 mass 59.49778300236448558280244469642639
  1 settings made for mass
set atom 52 volume 0.06506861552378601087909260058950
  1 settings made for volume
set atom 52 mass 58.56175397140741267776320455595851
  1 settings made for mass
set atom 53 volume 0.06441989888596384716823450844458
  1 settings made for volume
set atom 53 mass 57.97790899736746439430135069414973
  1 settings made for mass
set atom 54 volume 0.06474944375844900179561847153309
  1 settings made for volume
set atom 54 mass 58.27449938260409822987639927305281
  1 settings made for mass
set atom 55 volume 0.06519741479716240073472022231726
  1 settings made for volume
set atom 55 mass 58.67767331744616399191727396100760
  1 settings made for mass
set atom 56 volume 0.06465726525811664460174910118440
  1 settings made for volume
set atom 56 mass 58.19153873230497708846087334677577
  1 settings made for mass
set atom 57 volume 0.06424607645890721696613212543525
  1 settings made for volume
set atom 57 mass 57.82146881301649443685164442285895
  1 settings made for mass
set atom 58 volume 0.06560561845133201785973398045826
  1 settings made for volume
set atom 58 mass 59.04505660619881268758035730570555
  1 settings made for mass
set atom 59 volume 0.06560389538780105056492431003790
  1 settings made for volume
set atom 59 mass 59.04350584902094567496533272787929
  1 settings made for mass
set atom 60 volume 0.06625499189110561903959251139895
  1 settings made for volume
set atom 60 mass 59.62949270199505491518721100874245
  1 settings made for mass
set atom 61 volume 0.06519360047034565563972563495554
  1 settings made for volume
set atom 61 mass 58.67424042331109035330882761627436
  1 settings made for mass
set atom 62 volume 0.06614258018354950141581838352067
  1 settings made for volume
set atom 62 mass 59.52832216519455243997072102501988
  1 settings made for mass
set atom 63 volume 0.06648106149290190780565268369173
  1 settings made for volume
set atom 63 mass 59.83295534361171519321942469105124
  1 settings made for mass
set atom 64 volume 0.06528204774545505462146621766806
  1 settings made for volume
set atom 64 mass 58.75384297090955243447751854546368
  1 settings made for mass
set atom 65 volume 0.06440116478167993985248784838404
  1 settings made for volume
set atom 65 mass 57.96104830351194436843798030167818
  1 settings made for mass
set atom 66 volume 0.06443219167651652312667209798747
  1 settings made for volume
set atom 66 mass 57.98897250886486887111459509469569
  1 settings made for mass
set atom 67 volume 0.06618639594350478327910991538374
  1 settings made for volume
set atom 67 mass 59.56775634915430828186799772083759
  1 settings made for mass
set atom 68 volume 0.06562984863603225915706929072257
  1 settings made for volume
set atom 68 mass 59.06686377242903063233825378119946
  1 settings made for mass
set atom 69 volume 0.06508689435444674209474413828502
  1 settings made for volume
set atom 69 mass 58.57820491900206860691469046287239
  1 settings made for mass
set atom 70 volume 0.06460825616744869659413552653859
  1 settings made for volume
set atom 70 mass 58.14743055070382382609750493429601
  1 settings made for mass
set atom 71 volume 0.06625221026589359074598917231924
  1 settings made for volume
set atom 71 mass 59.62698923930422978401111322455108
  1 settings made for mass
set atom 72 volume 0.06630182125242060908743013669664
  1 settings made for volume
set atom 72 mass 59.67163912717855112077813828364015
  1 settings made for mass
set atom 73 volume 0.06508141358960194133853605080731
  1 settings made for volume
set atom 73 mass 58.57327223064174859246122650802135
  1 settings made for mass
set atom 74 volume 0.06470648201668123544738620012140
  1 settings made for volume
set atom 74 mass 58.23583381501310896055656485259533
  1 settings made for mass
set atom 75 volume 0.06489220804117880325723177747932
  1 settings made for volume
set atom 75 mass 58.40298723706091976737297954969108
  1 settings made for mass
set atom 76 volume 0.06460544811730210834621601634353
  1 settings made for volume
set atom 76 mass 58.14490330557189423643649206496775
  1 settings made for mass
set atom 77 volume 0.06672703806244764668242908101092
  1 settings made for volume
set atom 77 mass 60.05433425620288545587754924781621
  1 settings made for mass
set atom 78 volume 0.06444692772123154778096676409405
  1 settings made for volume
set atom 78 mass 58.00223494910839150406900444068015
  1 settings made for mass
set atom 79 volume 0.06455492810226677591334265571277
  1 settings made for volume
set atom 79 mass 58.09943529204009848854184383526444
  1 settings made for mass
set atom 80 volume 0.06581734195086449967782016301499
  1 settings made for volume
set atom 80 mass 59.23560775577804804470360977575183
  1 settings made for mass
set atom 81 volume 0.06607025073447767016254772443062
  1 settings made for volume
set atom 81 mass 59.46322566102990236913683474995196
  1 settings made for mass
set atom 82 volume 0.06446742045685786848263632009548
  1 settings made for volume
set atom 82 mass 58.02067841117208502055291319265962
  1 settings made for mass
set atom 83 volume 0.06528500228255680604139143952125
  1 settings made for volume
set atom 83 mass 58.75650205430112293925049016252160
  1 settings made for mass
set atom 84 volume 0.06508345108005308965459789760644
  1 settings made for volume
set atom 84 mass 58.57510597204777980095968814566731
  1 settings made for mass
set atom 85 volume 0.06691935504388785149743057445448
  1 settings made for volume
set atom 85 mass 60.22741953949906701382133178412914
  1 settings made for mass
set atom 86 volume 0.06625577822020481399967195557110
  1 settings made for volume
set atom 86 mass 59.63020039818433559730692650191486
  1 settings made for mass
set atom 87 volume 0.06670739416648945041554696899766
  1 settings made for volume
set atom 87 mass 60.03665474984050831608328735455871
  1 settings made for mass
set atom 88 volume 0.06477120882034066717825027126310
  1 settings made for volume
set atom 88 mass 58.29408793830660329149395693093538
  1 settings made for mass
set atom 89 volume 0.06681290732440776924949688009292
  1 settings made for volume
set atom 89 mass 60.13161659196699559970511472783983
  1 settings made for mass
set atom 90 volume 0.06442953825073301221681987271950
  1 settings made for volume
set atom 90 mass 57.98658442565971427029580809175968
  1 settings made for mass
set atom 91 volume 0.06571118140313346456249377069980
  1 settings made for volume
set atom 91 mass 59.14006326282012082629080396145582
  1 settings made for mass
set atom 92 volume 0.06623468969623132196478110245152
  1 settings made for volume
set atom 92 mass 59.61122072660818815847960649989545
  1 settings made for mass
set atom 93 volume 0.06675593676373051121863966272940
  1 settings made for volume
set atom 93 mass 60.08034308735746265028865309432149
  1 settings made for mass
set atom 94 volume 0.06577042341743880027316038194840
  1 settings made for volume
set atom 94 mass 59.19338107569492279935730039142072
  1 settings made for mass
set atom 95 volume 0.06689396547476587906455591792110
  1 settings made for volume
set atom 95 mass 60.20456892728929432223594631068408
  1 settings made for mass
set atom 96 volume 0.06449862017473090292085657893040
  1 settings made for volume
set atom 96 mass 58.04875815725781507126157521270216
  1 settings made for mass
set atom 97 volume 0.06490048360995129272943415799091
  1 settings made for volume
set atom 97 mass 58.41043524895616201320081017911434
  1 settings made for mass
set atom 98 volume 0.06431701072993911694197777251247
  1 settings made for volume
set atom 98 mass 57.88530965694520347142315586097538
  1 settings made for mass
set atom 99 volume 0.06546616258820457667777503729667
  1 settings made for volume
set atom 99 mass 58.91954632938411862141947494819760
  1 settings made for mass
set atom 100 volume 0.06595168459637809621476378652005
  1 settings made for volume
set atom 100 mass 59.35651613674028936884496943093836
  1 settings made for mass
set atom 101 volume 0.06613143917306450736415257551926
  1 settings made for volume
set atom 101 mass 59.51829525575805490689162979833782
  1 settings made for mass
set atom 102 volume 0.06508831164514364275852642549580
  1 settings made for volume
set atom 102 mass 58.57948048062927881574069033376873
  1 settings made for mass
set atom 103 volume 0.06717087689168466102529464478721
  1 settings made for volume
set atom 103 mass 60.45378920251619803138964925892651
  1 settings made for mass
set atom 104 volume 0.06485053392040161790443875133860
  1 settings made for volume
set atom 104 mass 58.36548052836145927813049638643861
  1 settings made for mass
set atom 105 volume 0.06594043490192870449195794435582
  1 settings made for volume
set atom 105 mass 59.34639141173583709587546763941646
  1 settings made for mass
set atom 106 volume 0.06518663743943158006555194106113
  1 settings made for volume
set atom 106 mass 58.66797369548842056019566371105611
  1 settings made for mass
set atom 107 volume 0.06601618940884033948091058618957
  1 settings made for volume
set atom 107 mass 59.41457046795630247970620985142887
  1 settings made for mass
set atom 108 volume 0.06469780759071498688062007431654
  1 settings made for volume
set atom 108 mass 58.22802683164348991340375505387783
  1 settings made for mass
set atom 109 volume 0.06536018859966551131090994886108
  1 settings made for volume
set atom 109 mass 58.82416973969895934715168550610542
  1 settings made for mass
set atom 110 volume 0.06627023158726731699719181278851
  1 settings made for volume
set atom 110 mass 59.64320842854058213333701132796705
  1 settings made for mass
set atom 111 volume 0.06608528144911596235999695636565
  1 settings made for volume
set atom 111 mass 59.47675330420436523581884102895856
  1 settings made for mass
set atom 112 volume 0.06588732402101019069995402333006
  1 settings made for volume
set atom 112 mass 59.29859161890917107484710868448019
  1 settings made for mass
set atom 113 volume 0.06500967253358234942961502156322
  1 settings made for volume
set atom 113 mass 58.50870528022411320989704108797014
  1 settings made for mass
set atom 114 volume 0.06625390019922555717712953082810
  1 settings made for volume
set atom 114 mass 59.62851017930299946101513342000544
  1 settings made for mass
set atom 115 volume 0.06553335514553772223056427037591
  1 settings made for volume
set atom 115 mass 58.98001963098395350471037090755999
  1 settings made for mass
set atom 116 volume 0.06689985368484491212726084086171
  1 settings made for volume
set atom 116 mass 60.20986831636042069249015185050666
  1 settings made for mass
set atom 117 volume 0.06620809087971996076404934683524
  1 settings made for volume
set atom 117 mass 59.58728179174796224515375797636807
  1 settings made for mass
set atom 118 volume 0.06535036347893115327156721150459
  1 settings made for volume
set atom 118 mass 58.81532713103803899912236374802887
  1 settings made for mass
set atom 119 volume 0.06599801375382299828409315978206
  1 settings made for volume
set atom 119 mass 59.39821237844069656830470194108784
  1 settings made for mass
set atom 120 volume 0.06460340175888058811271008607946
  1 settings made for volume
set atom 120 mass 58.14306158299253013410634594038129
  1 settings made for mass
set atom 121 volume 0.06576937059538949525983042576627
  1 settings made for volume
set atom 121 mass 59.19243353585054734367076889611781
  1 settings made for mass
set atom 122 volume 0.06609134208659350750991734457784
  1 settings made for volume
set atom 122 mass 59.48220787793415809119323967024684
  1 settings made for mass
set atom 123 volume 0.06532662336631692157062900605524
  1 settings made for volume
set atom 123 mass 58.79396102968522797027617343701422
  1 settings made for mass
set atom 124 volume 0.06519837498757410920724453262665
  1 settings made for volume
set atom 124 mass 58.67853748881670128412224585190415
  1 settings made for mass
set atom 125 volume 0.06563194438133064523288595637496
  1 settings made for volume
set atom 125 mass 59.06874994319758087613081443123519
  1 settings made for mass
set atom 126 volume 0.06604291508992338188832604828349
  1 settings made for volume
set atom 126 mass 59.43862358093104347744883853010833
  1 settings made for mass
set atom 127 volume 0.06560491091888237535911798659072
  1 settings made for volume
set atom 127 mass 59.04441982699413671298316330648959
  1 settings made for mass
set atom 128 volume 0.06600862110505860413933731933867
  1 settings made for volume
set atom 128 mass 59.40775899455274355887013371102512
  1 settings made for mass
set atom 129 volume 0.06413723966373532925366873769235
  1 settings made for volume
set atom 129 mass 57.72351569736179754954719101078808
  1 settings made for mass
set atom 130 volume 0.06557175560670897018766822839098
  1 settings made for volume
set atom 130 mass 59.01458004603806983823233167640865
  1 settings made for mass
set atom 131 volume 0.06657649458104510087341765256497
  1 settings made for volume
set atom 131 mass 59.91884512294058851011868682689965
  1 settings made for mass
set atom 132 volume 0.06572592498274222594378812800642
  1 settings made for volume
set atom 132 mass 59.15333248446800240571974427439272
  1 settings made for mass
set atom 133 volume 0.06476128150865313737316597553217
  1 settings made for volume
set atom 133 mass 58.28515335778782713305190554820001
  1 settings made for mass
set atom 134 volume 0.06402035320726427725102070098728
  1 settings made for volume
set atom 134 mass 57.61831788653785224596504122018814
  1 settings made for mass
set atom 135 volume 0.06544054975490526393500090307498
  1 settings made for volume
set atom 135 mass 58.89649477941473776354541769251227
  1 settings made for mass
set atom 136 volume 0.06498655432473551818439716498688
  1 settings made for volume
set atom 136 mass 58.48789889226196692106896080076694
  1 settings made for mass
set atom 137 volume 0.06510262545319296656476382167966
  1 settings made for volume
set atom 137 mass 58.59236290787367096299931290559471
  1 settings made for mass
set atom 138 volume 0.06556458609819426630593852678430
  1 settings made for volume
set atom 138 mass 59.00812748837483923125546425580978
  1 settings made for mass
set atom 139 volume 0.06540204546937877783108206131146
  1 settings made for volume
set atom 139 mass 58.86184092244089782752780593000352
  1 settings made for mass
set atom 140 volume 0.06512354158264808956513292059753
  1 settings made for volume
set atom 140 mass 58.61118742438328155230919946916401
  1 settings made for mass
set atom 141 volume 0.06557953283324315096880496867016
  1 settings made for volume
set atom 141 mass 59.02157954991883315187806147150695
  1 settings made for mass
set atom 142 volume 0.06500745172420462070217439531916
  1 settings made for volume
set atom 142 mass 58.50670655178415557884363806806505
  1 settings made for mass
set atom 143 volume 0.06567175949163334136571279486816
  1 settings made for volume
set atom 143 mass 59.10458354247001011572137940675020
  1 settings made for mass
set atom 144 volume 0.06515340627153361208190318620836
  1 settings made for volume
set atom 144 mass 58.63806564438024793162185233086348
  1 settings made for mass
set atom 145 volume 0.06633367324799030462223470294703
  1 settings made for volume
set atom 145 mass 59.70030592319127293876590556465089
  1 settings made for mass
set atom 146 volume 0.06432055033295867862985772944739
  1 settings made for volume
set atom 146 mass 57.88849529966280726966942893341184
  1 settings made for mass
set atom 147 volume 0.06592498794252844851460082509220
  1 settings made for volume
set atom 147 mass 59.33248914827560582807564060203731
  1 settings made for mass
set atom 148 volume 0.06463174488293600694621687807739
  1 settings made for volume
set atom 148 mass 58.16857039464240841653008828870952
  1 settings made for mass
set atom 149 volume 0.06571867492553423728551820204302
  1 settings made for volume
set atom 149 mass 59.14680743298081466718940646387637
  1 settings made for mass
set atom 150 volume 0.06573648511713742204065624719078
  1 settings made for volume
set atom 150 mass 59.16283660542367783818917814642191
  1 settings made for mass
set atom 151 volume 0.06531905090214283615690504802842
  1 settings made for volume
set atom 151 mass 58.78714581192855348490411415696144
  1 settings made for mass
set atom 152 volume 0.06427473117505753952283242824706
  1 settings made for volume
set atom 152 mass 57.84725805755178384970349725335836
  1 settings made for mass
set atom 153 volume 0.06681267440164290194459795202420
  1 settings made for volume
set atom 153 mass 60.13140696147861063991513219662011
  1 settings made for mass
set atom 154 volume 0.06611173884833662639515239334287
  1 settings made for volume
set atom 154 mass 59.50056496350296697528392542153597
  1 settings made for mass
set atom 155 volume 0.06537922286137264060723595093805
  1 settings made for volume
set atom 155 mass 58.84130057523537971064797602593899
  1 settings made for mass
set atom 156 volume 0.06749027578171608310331208713251
  1 settings made for volume
set atom 156 mass 60.74124820354447251702367793768644
  1 settings made for mass
set atom 157 volume 0.06470382398163816717318042037732
  1 settings made for volume
set atom 157 mass 58.23344158347435239875267143361270
  1 settings made for mass
set atom 158 volume 0.06666313249412790520320726272985
  1 settings made for volume
set atom 158 mass 59.99681924471511251795163843780756
  1 settings made for mass
set atom 159 volume 0.06543573277817869848771437091273
  1 settings made for volume
set atom 159 mass 58.89215950036082602991882595233619
  1 settings made for mass
set atom 160 volume 0.06384363502711516702436966852474
  1 settings made for volume
set atom 160 mass 57.45927152440364693575247656553984
  1 settings made for mass
set atom 161 volume 0.06532974931784366057208046640881
  1 settings made for volume
set atom 161 mass 58.79677438605929751247458625584841
  1 settings made for mass
set atom 162 volume 0.06623237557909530948130338856572
  1 settings made for volume
set atom 162 mass 59.60913802118577820010614232160151
  1 settings made for mass
set atom 163 volume 0.06609286887662184362124406789007
  1 settings made for volume
set atom 163 mass 59.48358198895965642805094830691814
  1 settings made for mass
set atom 164 volume 0.06586012653751517620381861206624
  1 settings made for volume
set atom 164 mass 59.27411388376366119246085872873664
  1 settings made for mass
set atom 165 volume 0.06552055797919253965488906032988
  1 settings made for volume
set atom 165 mass 58.96850218127328702166778384707868
  1 settings made for mass
set atom 166 volume 0.06504536813234143566297973393375
  1 settings made for volume
set atom 166 mass 58.54083131910729065339182852767408
  1 settings made for mass
set atom 167 volume 0.06448022234934143448459309411191
  1 settings made for volume
set atom 167 mass 58.03220011440728853813197929412127
  1 settings made for mass
set atom 168 volume 0.06409947001034861646662221801307
  1 settings made for volume
set atom 168 mass 57.68952300931375276604740065522492
  1 settings made for mass
set atom 169 volume 0.06433571127790239929655768946759
  1 settings made for volume
set atom 169 mass 57.90214015011216019956918898969889
  1 settings made for mass
set atom 170 volume 0.06532257173937207339609045675388
  1 settings made for volume
set atom 170 mass 58.79031456543486910959472879767418
  1 settings made for mass
set atom 171 volume 0.06470156896455767081555165987083
  1 settings made for volume
set atom 171 mass 58.23141206810190340092958649620414
  1 settings made for mass
set atom 172 volume 0.06537124759315651734148389095935
  1 settings made for volume
set atom 172 mass 58.83412283384086549631319940090179
  1 settings made for mass
set atom 173 volume 0.06534486805263657605014060436588
  1 settings made for volume
set atom 173 mass 58.81038124737291639121394837275147
  1 settings made for mass
set atom 174 volume 0.06561228721406268948879159097487
  1 settings made for volume
set atom 174 mass 59.05105849265642348200344713404775
  1 settings made for mass
set atom 175 volume 0.06561750695404326705340025682744
  1 settings made for volume
set atom 175 mass 59.05575625863894373424045625142753
  1 settings made for mass
set atom 176 volume 0.06538664933300204762378626810460
  1 settings made for volume
set atom 176 mass 58.84798439970184347203030483797193
  1 settings made for mass
set atom 177 volume 0.06562317544795083501529830982690
  1 settings made for volume
set atom 177 mass 59.06085790315574968190048821270466
  1 settings made for mass
set atom 178 volume 0.06514292262110955855636262867847
  1 settings made for volume
set atom 178 mass 58.62863035899860619792889337986708
  1 settings made for mass
set atom 179 volume 0.06534262636036852756049597701349
  1 settings made for volume
set atom 179 mass 58.80836372433167724693703348748386
  1 settings made for mass
set atom 180 volume 0.06521741503736808165392346836597
  1 settings made for volume
set atom 180 mass 58.69567353363127182319658459164202
  1 settings made for mass
set atom 181 volume 0.06475802196690397249945192470477
  1 settings made for volume
set atom 181 mass 58.28221977021357247394917067140341
  1 settings made for mass
set atom 182 volume 0.06666212975836273424423694677898
  1 settings made for volume
set atom 182 mass 59.99591678252646431701577967032790
  1 settings made for mass
set atom 183 volume 0.06597449156049639551468999343342
  1 settings made for volume
set atom 183 mass 59.37704240444675463095336453989148
  1 settings made for mass
set atom 184 volume 0.06603900054282781095782439706454
  1 settings made for volume
set atom 184 mass 59.43510048854503224902146030217409
  1 settings made for mass
set atom 185 volume 0.06514174477933999674039711180740
  1 settings made for volume
set atom 185 mass 58.62757030140599567857861984521151
  1 settings made for mass
set atom 186 volume 0.06526430967103898084236135446190
  1 settings made for volume
set atom 186 mass 58.73787870393508114830183330923319
  1 settings made for mass
set atom 187 volume 0.06456204653888882039058927375663
  1 settings made for volume
set atom 187 mass 58.10584188499993985033142962493002
  1 settings made for mass
set atom 188 volume 0.06593078432670650135261070090564
  1 settings made for volume
set atom 188 mass 59.33770589403584949650394264608622
  1 settings made for mass
set atom 189 volume 0.06424027285368238970875154336682
  1 settings made for volume
set atom 189 mass 57.81624556831415162605480873025954
  1 settings made for mass
set atom 190 volume 0.06317960061898229839894014503443
  1 settings made for volume
set atom 190 mass 56.86164055708406550593281281180680
  1 settings made for mass
set atom 191 volume 0.06587777549440312907513828122319
  1 settings made for volume
set atom 191 mass 59.28999794496281339206689153797925
  1 settings made for mass
set atom 192 volume 0.06630997997114516928629512904081
  1 settings made for volume
set atom 192 mass 59.67898197403065552180123631842434
  1 settings made for mass
set atom 193 volume 0.06527722219089379662726457809185
  1 settings made for volume
set atom 193 mass 58.74949997180441840782805229537189
  1 settings made for mass
set atom 194 volume 0.06491802646948621746680885280512
  1 settings made for volume
set atom 194 mass 58.42622382253759383274882566183805
  1 settings made for mass
set atom 195 volume 0.06573226973715499965589259545595
  1 settings made for volume
set atom 195 mass 59.15904276343950130012672161683440
  1 settings made for mass
set atom 196 volume 0.06518045307006135880012465122491
  1 settings made for volume
set atom 196 mass 58.66240776305522075517728808335960
  1 settings made for mass
set atom 197 volume 0.06504275959621384772813001973191
  1 settings made for volume
set atom 197 mass 58.53848363659245990220370003953576
  1 settings made for mass
set atom 198 volume 0.06543618422844386939285499238395
  1 settings made for volume
set atom 198 mass 58.89256580559948162090222467668355
  1 settings made for mass
set atom 199 volume 0.06461975529050560662636115694113
  1 settings made for volume
set atom 199 mass 58.15777976145504624128079740330577
  1 settings made for mass
set atom 200 volume 0.06642469326320497857718549994388
  1 settings made for volume
set atom 200 mass 59.78222393688447766635363223031163
  1 settings made for mass
set atom 201 volume 0.06639616018127382501834432559917
  1 settings made for volume
set atom 201 mass 59.75654416314644379326637135818601
  1 settings made for mass
set atom 202 volume 0.06604385890295257077742263618347
  1 settings made for volume
set atom 202 mass 59.43947301265731653074908535927534
  1 settings made for mass
set atom 203 volume 0.06390132665547736123823341358730
  1 settings made for volume
set atom 203 mass 57.51119398992962317151977913454175
  1 settings made for mass
set atom 204 volume 0.06361604557168790141652436886943
  1 settings made for volume
set atom 204 mass 57.25444101451910938749279011972249
  1 settings made for mass
set atom 205 volume 0.06574026535815345739788284618044
  1 settings made for volume
set atom 205 mass 59.16623882233810860498124384321272
  1 settings made for mass
set atom 206 volume 0.06480827392703039646626450576150
  1 settings made for volume
set atom 206 mass 58.32744653432735759679417242296040
  1 settings made for mass
set atom 207 volume 0.06518864128969716065231665425017
  1 settings made for volume
set atom 207 mass 58.66977716072744186703857849352062
  1 settings made for mass
set atom 208 volume 0.06667349827961964459088761714156
  1 settings made for volume
set atom 208 mass 60.00614845165767974322079680860043
  1 settings made for mass
set atom 209 volume 0.06550540151153021184438074442369
  1 settings made for volume
set atom 209 mass 58.95486136037719404612289508804679
  1 settings made for mass
set atom 210 volume 0.06482364757417662104455047256124
  1 settings made for volume
set atom 210 mass 58.34128281675896232627565041184425
  1 settings made for mass
set atom 211 volume 0.06607025727253250380055504820120
  1 settings made for volume
set atom 211 mass 59.46323154527925680667976848781109
  1 settings made for mass
set atom 212 volume 0.06473977445963297050468554516556
  1 settings made for volume
set atom 212 mass 58.26579701366967611875224974937737
  1 settings made for mass
set atom 213 volume 0.06534180602446934549298873662337
  1 settings made for volume
set atom 213 mass 58.80762542202241149880137527361512
  1 settings made for mass
set atom 214 volume 0.06614408090736263734488176169179
  1 settings made for volume
set atom 214 mass 59.52967281662637333283782936632633
  1 settings made for mass
set atom 215 volume 0.06546595670460922389288782596850
  1 settings made for volume
set atom 215 mass 58.91936103414830228075516060926020
  1 settings made for mass
set atom 216 volume 0.06529162200364641011063326914154
  1 settings made for volume
set atom 216 mass 58.76245980328177154206059640273452
  1 settings made for mass
set atom 217 volume 0.06647185352410359127084404917696
  1 settings made for volume
set atom 217 mass 59.82466817169323292091576149687171
  1 settings made for mass
set atom 218 volume 0.06574283914748267620975497038671
  1 settings made for volume
set atom 218 mass 59.16855523273440553566615562886000
  1 settings made for mass
set atom 219 volume 0.06607307980576332395727945367980
  1 settings made for volume
set atom 219 mass 59.46577182518699089541769353672862
  1 settings made for mass
set atom 220 volume 0.06421648256056652903644987873122
  1 settings made for volume
set atom 220 mass 57.79483430450987668791640317067504
  1 settings made for mass
set atom 221 volume 0.06516034975076111235292586343348
  1 settings made for volume
set atom 221 mass 58.64431477568500383767968742176890
  1 settings made for mass
set atom 222 volume 0.06614002042113778512266719644686
  1 settings made for volume
set atom 222 mass 59.52601837902400916391343344002962
  1 settings made for mass
set atom 223 volume 0.06502467932812447393153831853851
  1 settings made for volume
set atom 223 mass 58.52221139531202709349599899724126
  1 settings made for mass
set atom 224 volume 0.06562201646738417826210110206375
  1 settings made for volume
set atom 224 mass 59.05981482064576226775898248888552
  1 settings made for mass
set atom 225 volume 0.06516852530030137202743389934767
  1 settings made for volume
set atom 225 mass 58.65167277027123304833367001265287
  1 settings made for mass
set atom 226 volume 0.06722020611356625818810783812296
  1 settings made for volume
set atom 226 mass 60.49818550220962976027294644154608
  1 settings made for mass
set atom 227 volume 0.06566443945039546203901181797846
  1 settings made for volume
set atom 227 mass 59.09799550535591805555668543092906
  1 settings made for mass
set atom 228 volume 0.06627826721220379802002042879394
  1 settings made for volume
set atom 228 mass 59.65044049098342071602019132114947
  1 settings made for mass
set atom 229 volume 0.06527529322128762523380629545500
  1 settings made for volume
set atom 229 mass 58.74776389915886198878069990314543
  1 settings made for mass
set atom 230 volume 0.06527450207849612440202946572754
  1 settings made for volume
set atom 230 mass 58.74705187064650857564629404805601
  1 settings made for mass
set atom 231 volume 0.06676755253702539028015650046655
  1 settings made for volume
set atom 231 mass 60.09079728332284986436206963844597
  1 settings made for mass
set atom 232 volume 0.06562466454104648461154170036025
  1 settings made for volume
set atom 232 mass 59.06219808694183370789687614887953
  1 settings made for mass
set atom 233 volume 0.06502223006594906595800864579360
  1 settings made for volume
set atom 233 mass 58.52000705935415680869482457637787
  1 settings made for mass
set atom 234 volume 0.06615837967804243102687422606323
  1 settings made for volume
set atom 234 mass 59.54254171023818997809939901344478
  1 settings made for mass
set atom 235 volume 0.06636788934742605949868021752991
  1 settings made for volume
set atom 235 mass 59.73110041268345327125643962062895
  1 settings made for mass
set atom 236 volume 0.06712132668003428781489105858782
  1 settings made for volume
set atom 236 mass 60.40919401203085925544655765406787
  1 settings made for mass
set atom 237 volume 0.06566337845068055678598994973072
  1 settings made for volume
set atom 237 mass 59.09704060561249860938914935104549
  1 settings made for mass
set atom 238 volume 0.06524302971851263233116213768881
  1 settings made for volume
set atom 238 mass 58.71872674666136759924484067596495
  1 settings made for mass
set atom 239 volume 0.06576039648040016283303543787042
  1 settings made for volume
set atom 239 mass 59.18435683236014455133044975809753
  1 settings made for mass
set atom 240 volume 0.06520511681653828883753476475249
  1 settings made for volume
set atom 240 mass 58.68460513488445684515681932680309
  1 settings made for mass
set atom 241 volume 0.06521089612768042609314278479360
  1 settings made for volume
set atom 241 mass 58.68980651491238376138426247052848
  1 settings made for mass
set atom 242 volume 0.06595305895106676197237050018884
  1 settings made for volume
set atom 242 mass 59.35775305596008877273561665788293
  1 settings made for mass
set atom 243 volume 0.06547106436176702848328545769618
  1 settings made for volume
set atom 243 mass 58.92395792559032230428783805109560
  1 settings made for mass
set atom 244 volume 0.06511903992618671421777065688730
  1 settings made for volume
set atom 244 mass 58.60713593356804551604000153020024
  1 settings made for mass
set atom 245 volume 0.06535981582689637248151370840787
  1 settings made for volume
set atom 245 mass 58.82383424420673634358536219224334
  1 settings made for mass
set atom 246 volume 0.06392886206359255085729387246829
  1 settings made for volume
set atom 246 mass 57.53597585723329643769829999655485
  1 settings made for mass
set atom 247 volume 0.06527386460347411878402112961339
  1 settings made for volume
set atom 247 mass 58.74647814312670845993125112727284
  1 settings made for mass
set atom 248 volume 0.06554845051247268350458341501508
  1 settings made for volume
set atom 248 mass 58.99360546122541393287974642589688
  1 settings made for mass
set atom 249 volume 0.06586765319714804611805902823107
  1 settings made for volume
set atom 249 mass 59.28088787743324417078838450834155
  1 settings made for mass
set atom 250 volume 0.06581588051951178797160935118882
  1 settings made for volume
set atom 250 mass 59.23429246756060706502466928213835
  1 settings made for mass
set atom 251 volume 0.06566539484110787971982148292227
  1 settings made for volume
set atom 251 mass 59.09885535699709180335048586130142
  1 settings made for mass
set atom 252 volume 0.06439831785755846527141699198182
  1 settings made for volume
set atom 252 mass 57.95848607180261780058572185225785
  1 settings made for mass
set atom 253 volume 0.06516796883111053428905279361061
  1 settings made for volume
set atom 253 mass 58.65117194799947952787988469935954
  1 settings made for mass
set atom 254 volume 0.06571772890931094901478815017981
  1 settings made for volume
set atom 254 mass 59.14595601837985583415502333082259
  1 settings made for mass
set atom 255 volume 0.06495769704101332642220967272806
  1 settings made for volume
set atom 255 mass 58.46192733691199094891999266110361
  1 settings made for mass
set atom 256 volume 0.06568891036724371079724704713954
  1 settings made for volume
set atom 256 mass 59.12001933051934088325651828199625
  1 settings made for mass
set atom 257 volume 0.06680842584363241853928627733694
  1 settings made for volume
set atom 257 mass 60.12758325926917990500442101620138
  1 settings made for mass
set atom 258 volume 0.06534682351386299214990316386320
  1 settings made for volume
set atom 258 mass 58.81214116247669210224557900801301
  1 settings made for mass
set atom 259 volume 0.06528144573866753730406742306513
  1 settings made for volume
set atom 259 mass 58.75330116480078146423693397082388
  1 settings made for mass
set atom 260 volume 0.06546644531767822905443665604253
  1 settings made for volume
set atom 260 mass 58.91980078591040381752463872544467
  1 settings made for mass
set atom 261 volume 0.06608730709246965484560121240065
  1 settings made for volume
set atom 261 mass 59.47857638322268769570655422285199
  1 settings made for mass
set atom 262 volume 0.06544520186020458263342902682780
  1 settings made for volume
set atom 262 mass 58.90068167418412770075519802048802
  1 settings made for mass
set atom 263 volume 0.06476711800573070609843284728413
  1 settings made for volume
set atom 263 mass 58.29040620515763748699100688099861
  1 settings made for mass
set atom 264 volume 0.06579822674093513401594179867971
  1 settings made for volume
set atom 264 mass 59.21840406684162161354834097437561
  1 settings made for mass
set atom 265 volume 0.06617907936765925203115301655998
  1 settings made for volume
set atom 265 mass 59.56117143089332444105821195989847
  1 settings made for mass
set atom 266 volume 0.06694091328890354464231648989880
  1 settings made for volume
set atom 266 mass 60.24682196001319312017585616558790
  1 settings made for mass
set atom 267 volume 0.06714025992926071773059248926074
  1 settings made for volume
set atom 267 mass 60.42623393633464701224511372856796
  1 settings made for mass
set atom 268 volume 0.06634589167712795498843547647994
  1 settings made for volume
set atom 268 mass 59.71130250941516237617179285734892
  1 settings made for mass
set atom 269 volume 0.06626589439698263306333103628276
  1 settings made for volume
set atom 269 mass 59.63930495728436653735116124153137
  1 settings made for mass
set atom 270 volume 0.06576534847608683787001382370363
  1 settings made for volume
set atom 270 mass 59.18881362847815097438797238282859
  1 settings made for mass
set atom 271 volume 0.06462921690108978933775318864718
  1 settings made for volume
set atom 271 mass 58.16629521098081312402428011409938
  1 settings made for mass
set atom 272 volume 0.06570339038827931188446740407016
  1 settings made for volume
set atom 272 mass 59.13305134945137808699655579403043
  1 settings made for mass
set atom 273 volume 0.06491794014326891792965312788510
  1 settings made for volume
set atom 273 mass 58.42614612894202963389034266583622
  1 settings made for mass
set atom 274 volume 0.06472921231371431272094696396380
  1 settings made for volume
set atom 274 mass 58.25629108234288366929831681773067
  1 settings made for mass
set atom 275 volume 0.06579157406893801351976946989453
  1 settings made for volume
set atom 275 mass 59.21241666204421250085943029262125
  1 settings made for mass
set atom 276 volume 0.06610909460583988539461586242396
  1 settings made for volume
set atom 276 mass 59.49818514525589563390894909389317
  1 settings made for mass
set atom 277 volume 0.06524510452259388304518950008060
  1 settings made for volume
set atom 277 mass 58.72059407033449218715759343467653
  1 settings made for mass
set atom 278 volume 0.06672018897589988839502694872863
  1 settings made for volume
set atom 278 mass 60.04817007830990149841454694978893
  1 settings made for mass
set atom 279 volume 0.06413330684537493775465577527939
  1 settings made for volume
set atom 279 mass 57.71997616083744730985927162691951
  1 settings made for mass
set atom 280 volume 0.06558463844510264983966862928355
  1 settings made for volume
set atom 280 mass 59.02617460059238396752334665507078
  1 settings made for mass
set atom 281 volume 0.06497973804249904117291691818536
  1 settings made for volume
set atom 281 mass 58.48176423824913428006766480393708
  1 settings made for mass
set atom 282 volume 0.06427154806640086870395123241906
  1 settings made for volume
set atom 282 mass 57.84439325976077839186473283916712
  1 settings made for mass
set atom 283 volume 0.06613339500989987018719773459452
  1 settings made for volume
set atom 283 mass 59.52005550890988416767868329770863
  1 settings made for mass
set atom 284 volume 0.06547161563694561814408245936647
  1 settings made for volume
set atom 284 mass 58.92445407325105577456270111724734
  1 settings made for mass
set atom 285 volume 0.06531315141081571462589039356317
  1 settings made for volume
set atom 285 mass 58.78183626973414277472329558804631
  1 settings made for mass
set atom 286 volume 0.06479597611516180188928615280020
  1 settings made for volume
set atom 286 mass 58.31637850364562325466977199539542
  1 settings made for mass
set atom 287 volume 0.06512023237107257556122164032786
  1 settings made for volume
set atom 287 mass 58.60820913396531750549911521375179
  1 settings made for mass
set atom 288 volume 0.06586467584603089564510014497500
  1 settings made for volume
set atom 288 mass 59.27820826142780674672394525259733
  1 settings made for mass
set atom 289 volume 0.06410510723780608877131470535460
  1 settings made for volume
set atom 289 mass 57.69459651402547706311452202498913
  1 settings made for mass
set atom 290 volume 0.06561086601852274269308651355459
  1 settings made for volume
set atom 290 mass 59.04977941667046792417750111781061
  1 settings made for mass
set atom 291 volume 0.06459970603531589583568006673886
  1 settings made for volume
set atom 291 mass 58.13973543178430958278113394044340
  1 settings made for mass
set atom 292 volume 0.06625380479446230097551051585469
  1 settings made for volume
set atom 292 mass 59.62842431501606910160262486897409
  1 settings made for mass
set atom 293 volume 0.06571811914254771513910213798226
  1 settings made for volume
set atom 293 mass 59.14630722829294029452285030856729
  1 settings made for mass
set atom 294 volume 0.06513508215337705797853828926236
  1 settings made for volume
set atom 294 mass 58.62157393803935434561935835517943
  1 settings made for mass
set atom 295 volume 0.06447839177381808895006543025374
  1 settings made for volume
set atom 295 mass 58.03055259643628005505888722836971
  1 settings made for mass
set atom 296 volume 0.06700438618617919617204137239241
  1 settings made for volume
set atom 296 mass 60.30394756756127350172391743399203
  1 settings made for mass
set atom 297 volume 0.06635669244173031389166794724588
  1 settings made for volume
set atom 297 mass 59.72102319755727961592128849588335
  1 settings made for mass
set atom 298 volume 0.06586430743635018902892852565856
  1 settings made for volume
set atom 298 mass 59.27787669271516790558962384238839
  1 settings made for mass
set atom 299 volume 0.06439084523082168332042130032278
  1 settings made for volume
set atom 299 mass 57.95176070773951693126946338452399
  1 settings made for mass
set atom 300 volume 0.06463003151327112449919809478160
  1 settings made for volume
set atom 300 mass 58.16702836194401271541210007853806
  1 settings made for mass
set atom 301 volume 0.06424801852422536152520393670784
  1 settings made for volume
set atom 301 mass 57.82321667180282531717239180579782
  1 settings made for mass
set atom 302 volume 0.06736779036048211322107448495444
  1 settings made for volume
set atom 302 mass 60.63101132443389928994292858988047
  1 settings made for mass
set atom 303 volume 0.06500813873315064439495358783461
  1 settings made for volume
set atom 303 mass 58.50732485983557751296757487580180
  1 settings made for mass
set atom 304 volume 0.06491770503893264099293247681999
  1 settings made for volume
set atom 304 mass 58.42593453503937439563742373138666
  1 settings made for mass
set atom 305 volume 0.06493485451495048521586284095974
  1 settings made for volume
set atom 305 mass 58.44136906345543991392332827672362
  1 settings made for mass
set atom 306 volume 0.06543189273441089859328911870762
  1 settings made for volume
set atom 306 mass 58.88870346096980767924833344295621
  1 settings made for mass
set atom 307 volume 0.06547609550531667543804559272758
  1 settings made for volume
set atom 307 mass 58.92848595478501039224283886142075
  1 settings made for mass
set atom 308 volume 0.06502299629746355336123997403774
  1 settings made for volume
set atom 308 mass 58.52069666771719624875913723371923
  1 settings made for mass
set atom 309 volume 0.06602318751864873214163509373975
  1 settings made for volume
set atom 309 mass 59.42086876678386175854029715992510
  1 settings made for mass
set atom 310 volume 0.06518651001177844239720116092940
  1 settings made for volume
set atom 310 mass 58.66785901060060126610551378689706
  1 settings made for mass
set atom 311 volume 0.06526252143193553290068109618005
  1 settings made for volume
set atom 311 mass 58.73626928874197972163528902456164
  1 settings made for mass
set atom 312 volume 0.06657923431743288655848544976834
  1 settings made for volume
set atom 312 mass 59.92131088568959995654950034804642
  1 settings made for mass
set atom 313 volume 0.06640103069649208600289114201587
  1 settings made for volume
set atom 313 mass 59.76092762684287862384735490195453
  1 settings made for mass
set atom 314 volume 0.06533410907928807742628407595475
  1 settings made for volume
set atom 314 mass 58.80069817135927223716862499713898
  1 settings made for mass
set atom 315 volume 0.06633441605905268656506734714640
  1 settings made for volume
set atom 315 mass 59.70097445314741690935989026911557
  1 settings made for mass
set atom 316 volume 0.06533984944251144955096322064492
  1 settings made for volume
set atom 316 mass 58.80586449826030559506762074306607
  1 settings made for mass
set atom 317 volume 0.06458732443644829568363263661013
  1 settings made for volume
set atom 317 mass 58.12859199280346444993483601137996
  1 settings made for mass
set atom 318 volume 0.06479662435510336049304669359117
  1 settings made for volume
set atom 318 mass 58.31696191959302666418807348236442
  1 settings made for mass
set atom 319 volume 0.06566968806714273965141615008179
  1 settings made for volume
set atom 319 mass 59.10271926042846502014072029851377
  1 settings made for mass
set atom 320 volume 0.06389700905770448469134237257094
  1 settings made for volume
set atom 320 mass 57.50730815193403344665057375095785
  1 settings made for mass
set atom 321 volume 0.06585079730664467057010824646568
  1 settings made for volume
set atom 321 mass 59.26571757598020440127584151923656
  1 settings made for mass
set atom 322 volume 0.06449466994603555991538712532929
  1 settings made for volume
set atom 322 mass 58.04520295143200314669229555875063
  1 settings made for mass
set atom 323 volume 0.06499351903317560075201697600278
  1 settings made for volume
set atom 323 mass 58.49416712985804167601600056514144
  1 settings made for mass
set atom 324 volume 0.06530321140362412013491422158040
  1 settings made for volume
set atom 324 mass 58.77289026326170784386704326607287
  1 settings made for mass
set atom 325 volume 0.06706732348469206239638396027658
  1 settings made for volume
set atom 325 mass 60.36059113622285821065815980546176
  1 settings made for mass
set atom 326 volume 0.06681879897009859736733972113143
  1 settings made for volume
set atom 326 mass 60.13691907308874107229712535627186
  1 settings made for mass
set atom 327 volume 0.06511103206559296086020083293988
  1 settings made for volume
set atom 327 mass 58.59992885903366754973831120878458
  1 settings made for mass
set atom 328 volume 0.06448782804575653448964089875517
  1 settings made for volume
set atom 328 mass 58.03904524118087948636457440443337
  1 settings made for mass
set atom 329 volume 0.06581625189478634840867243838147
  1 settings made for volume
set atom 329 mass 59.23462670530771134735914529301226
  1 settings made for mass
set atom 330 volume 0.06573738309989901607011120177049
  1 settings made for volume
set atom 330 mass 59.16364478990911379696626681834459
  1 settings made for mass
set atom 331 volume 0.06440245481527635817986521260536
  1 settings made for volume
set atom 331 mass 57.96220933374872430476898443885148
  1 settings made for mass
set atom 332 volume 0.06624261931974842476655851442047
  1 settings made for volume
set atom 332 mass 59.61835738777358528750482946634293
  1 settings made for mass
set atom 333 volume 0.06450434007547531378712335481396
  1 settings made for volume
set atom 333 mass 58.05390606792778385170095134526491
  1 settings made for mass
set atom 334 volume 0.06655144075957594718140342138213
  1 settings made for volume
set atom 334 mass 59.89629668361835257428538170643151
  1 settings made for mass
set atom 335 volume 0.06560757187609594920374433968391
  1 settings made for volume
set atom 335 mass 59.04681468848635716994976974092424
  1 settings made for mass
set atom 336 volume 0.06439523586019976764127648038993
  1 settings made for volume
set atom 336 mass 57.95571227417978832363587571308017
  1 settings made for mass
set atom 337 volume 0.06469235424105142240325250213573
  1 settings made for volume
set atom 337 mass 58.22311881694628254990675486624241
  1 settings made for mass
set atom 338 volume 0.06625479508037353248983691855756
  1 settings made for volume
set atom 338 mass 59.62931557233618207192193949595094
  1 settings made for mass
set atom 339 volume 0.06600529443511479743555980803649
  1 settings made for volume
set atom 339 mass 59.40476499160331513849087059497833
  1 settings made for mass
set atom 340 volume 0.06532553589914076586087077203047
  1 settings made for volume
set atom 340 mass 58.79298230922668722087109927088022
  1 settings made for mass
set atom 341 volume 0.06557871857397690185109695448773
  1 settings made for volume
set atom 341 mass 59.02084671657921433052251813933253
  1 settings made for mass
set atom 342 volume 0.06643460540769717537212812885627
  1 settings made for volume
set atom 342 mass 59.79114486692746055496172630228102
  1 settings made for mass
set atom 343 volume 0.06468246536612774766350497657186
  1 settings made for volume
set atom 343 mass 58.21421882951496939995195134542882
  1 settings made for mass
set atom 344 volume 0.06783702425381842038287771856631
  1 settings made for volume
set atom 344 mass 61.05332182843658017645793734118342
  1 settings made for mass
set atom 345 volume 0.06506498155671958105727981092059
  1 settings made for volume
set atom 345 mass 58.55848340104762428381945937871933
  1 settings made for mass
set atom 346 volume 0.06554159273387208384242796910257
  1 settings made for volume
set atom 346 mass 58.98743346048487268262761062942445
  1 settings made for mass
set atom 347 volume 0.06395194164877111842049117740316
  1 settings made for volume
set atom 347 mass 57.55674748389400718906472320668399
  1 settings made for mass
set atom 348 volume 0.06562051927001850970544438723664
  1 settings made for volume
set atom 348 mass 59.05846734301665890143340220674872
  1 settings made for mass
set atom 349 volume 0.06519816190787726395416967761776
  1 settings made for volume
set atom 349 mass 58.67834571708953461666169459931552
  1 settings made for mass
set atom 350 volume 0.06449753580764121252411058549114
  1 settings made for volume
set atom 350 mass 58.04778222687708932880923384800553
  1 settings made for mass
set atom 351 volume 0.06622740813408893589819825820086
  1 settings made for volume
set atom 351 mass 59.60466732068004347411260823719203
  1 settings made for mass
set atom 352 volume 0.06473481853603156588317091291174
  1 settings made for volume
set atom 352 mass 58.26133668242840712991892360150814
  1 settings made for mass
set atom 353 volume 0.06524193058202192030403665512495
  1 settings made for volume
set atom 353 mass 58.71773752381972855118874576874077
  1 settings made for mass
set atom 354 volume 0.06521460995035339991421352578982
  1 settings made for volume
set atom 354 mass 58.69314895531805831296878750436008
  1 settings made for mass
set atom 355 volume 0.06539125640530002447903257234429
  1 settings made for volume
set atom 355 mass 58.85213076477002402953075943514705
  1 settings made for mass
set atom 356 volume 0.06701444685012782065403058595621
  1 settings made for volume
set atom 356 mass 60.31300216511503720084874657914042
  1 settings made for mass
set atom 357 volume 0.06666337511883409228108376964883
  1 settings made for volume
set atom 357 mass 59.99703760695068410768726607784629
  1 settings made for mass
set atom 358 volume 0.06578656352326237022332122705848
  1 settings made for volume
set atom 358 mass 59.20790717093613153565456741489470
  1 settings made for mass
set atom 359 volume 0.06626355471109168782106735307025
  1 settings made for volume
set atom 359 mass 59.63719923998252170349587686359882
  1 settings made for mass
set atom 360 volume 0.06532647702856476945587616000921
  1 settings made for volume
set atom 360 mass 58.79382932570829467522344202734530
  1 settings made for mass
set atom 361 volume 0.06580655442454635961624376250256
  1 settings made for volume
set atom 361 mass 59.22589898209172076803952222689986
  1 settings made for mass
set atom 362 volume 0.06535768940341837862639806644438
  1 settings made for volume
set atom 362 mass 58.82192046307653754411148838698864
  1 settings made for mass
set atom 363 volume 0.06529810901727765848345796939611
  1 settings made for volume
set atom 363 mass 58.76829811554988935995424981229007
  1 settings made for mass
set atom 364 volume 0.06445839820501753081316564930603
  1 settings made for volume
set atom 364 mass 58.01255838451577773184908437542617
  1 settings made for mass
set atom 365 volume 0.06471393144020032295316013914999
  1 settings made for volume
set atom 365 mass 58.24253829618029243420096463523805
  1 settings made for mass
set atom 366 volume 0.06535991310312845581353968782423
  1 settings made for volume
set atom 366 mass 58.82392179281561084280838258564472
  1 settings made for mass
set atom 367 volume 0.06497963181627298967502071036506
  1 settings made for volume
set atom 367 mass 58.48166863464569331654274719767272
  1 settings made for mass
set atom 368 volume 0.06545311889142162165011740171394
  1 settings made for volume
set atom 368 mass 58.90780700227946198310746694914997
  1 settings made for mass
set atom 369 volume 0.06470331263499158602758853930936
  1 settings made for volume
set atom 369 mass 58.23298137149242847954155877232552
  1 settings made for mass
set atom 370 volume 0.06577542664655613990909444055433
  1 settings made for volume
set atom 370 mass 59.19788398190052447489506448619068
  1 settings made for mass
set atom 371 volume 0.06454357496164264684779254821478
  1 settings made for volume
set atom 371 mass 58.08921746547838438345934264361858
  1 settings made for mass
set atom 372 volume 0.06476447488306648347933247578112
  1 settings made for volume
set atom 372 mass 58.28802739475983685224491637200117
  1 settings made for mass
set atom 373 volume 0.06634372692731582699110504108830
  1 settings made for volume
set atom 373 mass 59.70935423458424651244058622978628
  1 settings made for mass
set atom 374 volume 0.06555776818810123141023638027036
  1 settings made for volume
set atom 374 mass 59.00199136929111176641526981256902
  1 settings made for mass
set atom 375 volume 0.06454780982223132235198193029646
  1 settings made for volume
set atom 375 mass 58.09302884000818778531538555398583
  1 settings made for mass
set atom 376 volume 0.06683243834457165688522906066282
  1 settings made for volume
set atom 376 mass 60.14919451011449069710579351522028
  1 settings made for mass
set atom 377 volume 0.06631979991784470174209786819119
  1 settings made for volume
set atom 377 mass 59.68781992606022868130821734666824
  1 settings made for mass
set atom 378 volume 0.06588616604134389653779635409592
  1 settings made for volume
set atom 378 mass 59.29754943720950421948145958594978
  1 settings made for mass
set atom 379 volume 0.06564576042933117916433616301219
  1 settings made for volume
set atom 379 mass 59.08118438639806413448241073638201
  1 settings made for mass
set atom 380 volume 0.06594721099372662098669906072246
  1 settings made for volume
set atom 380 mass 59.35248989435395827740649110637605
  1 settings made for mass
set atom 381 volume 0.06524111312501389148277297636014
  1 settings made for volume
set atom 381 mass 58.71700181251249972547157085500658
  1 settings made for mass
set atom 382 volume 0.06663829968992411589834290452927
  1 settings made for volume
set atom 382 mass 59.97446972093170103335069143213332
  1 settings made for mass
set atom 383 volume 0.06451456550515242971410856398506
  1 settings made for volume
set atom 383 mass 58.06310895463718679820885881781578
  1 settings made for mass
set atom 384 volume 0.06563003747670168031014270582091
  1 settings made for volume
set atom 384 mass 59.06703372903151461059678695164621
  1 settings made for mass
set atom 385 volume 0.06541592044282672213650897674597
  1 settings made for volume
set atom 385 mass 58.87432839854405131063685985282063
  1 settings made for mass
set atom 386 volume 0.06440238121122798808926290803356
  1 settings made for volume
set atom 386 mass 57.96214309010518661580135812982917
  1 settings made for mass
set atom 387 volume 0.06475339603234435414957914645129
  1 settings made for volume
set atom 387 mass 58.27805642910991679173093871213496
  1 settings made for mass
set atom 388 volume 0.06505737624866793356037675266634
  1 settings made for volume
set atom 388 mass 58.55163862380113926064950646832585
  1 settings made for mass
set atom 389 volume 0.06546722681720294756413380810045
  1 settings made for volume
set atom 389 mass 58.92050413548265197505315882153809
  1 settings made for mass
set atom 390 volume 0.06556408929101968652286558381093
  1 settings made for volume
set atom 390 mass 59.00768036191772125675925053656101
  1 settings made for mass
set atom 391 volume 0.06546953312527147017529927097712
  1 settings made for volume
set atom 391 mass 58.92257981274432410145891481079161
  1 settings made for mass
set atom 392 volume 0.06671104985957461430690074166705
  1 settings made for volume
set atom 392 mass 60.03994487361715215456570149399340
  1 settings made for mass
set atom 393 volume 0.06474533424659148495017291224940
  1 settings made for volume
set atom 393 mass 58.27080082193233323550884961150587
  1 settings made for mass
set atom 394 volume 0.06495301213030789388991337318657
  1 settings made for volume
set atom 394 mass 58.45771091727710455643318709917367
  1 settings made for mass
set atom 395 volume 0.06613449935490041398100657943360
  1 settings made for volume
set atom 395 mass 59.52104941941037452579621458426118
  1 settings made for mass
set atom 396 volume 0.06515768542091113224579146390170
  1 settings made for volume
set atom 396 mass 58.64191687882001957632382982410491
  1 settings made for mass
set atom 397 volume 0.06553013300314967926052389657343
  1 settings made for volume
set atom 397 mass 58.97711970283471316633949754759669
  1 settings made for mass
set atom 398 volume 0.06384962181533763991847507668354
  1 settings made for volume
set atom 398 mass 57.46465963380387620418332517147064
  1 settings made for mass
set atom 399 volume 0.06479025434056183418984886657199
  1 settings made for volume
set atom 399 mass 58.31122890650564727366145234555006
  1 settings made for mass
set atom 400 volume 0.06641883739331495839497421229680
  1 settings made for volume
set atom 400 mass 59.77695365398346183383182506076992
  1 settings made for mass
set atom 401 volume 0.06523079288104623174593399426158
  1 settings made for volume
set atom 401 mass 58.70771359294160873787404852919281
  1 settings made for mass
set atom 402 volume 0.06513690270442716589993636944200
  1 settings made for volume
set atom 402 mass 58.62321243398444892136467387899756
  1 settings made for mass
set atom 403 volume 0.06511457683250175543232529662419
  1 settings made for volume
set atom 403 mass 58.60311914925158305322838714346290
  1 settings made for mass
set atom 404 volume 0.06676121083470344663712836563718
  1 settings made for volume
set atom 404 mass 60.08508975123309880927990889176726
  1 settings made for mass
set atom 405 volume 0.06669177193121728075553278358711
  1 settings made for volume
set atom 405 mass 60.02259473809555601064857910387218
  1 settings made for mass
set atom 406 volume 0.06608769287283047799697044411005
  1 settings made for volume
set atom 406 mass 59.47892358554742742171583813615143
  1 settings made for mass
set atom 407 volume 0.06538112797866438286042978234036
  1 settings made for volume
set atom 407 mass 58.84301518079794135474003269337118
  1 settings made for mass
set atom 408 volume 0.06702842418477901464957113830678
  1 settings made for volume
set atom 408 mass 60.32558176630111290705826831981540
  1 settings made for mass
set atom 409 volume 0.06485546250675573720645417097330
  1 settings made for volume
set atom 409 mass 58.36991625608016676096667652018368
  1 settings made for mass
set atom 410 volume 0.06466850175867554229025557788191
  1 settings made for volume
set atom 410 mass 58.20165158280799033718722057528794
  1 settings made for mass
set atom 411 volume 0.06381026043333858088768550942405
  1 settings made for volume
set atom 411 mass 57.42923439000472285442810971289873
  1 settings made for mass
set atom 412 volume 0.06474736658367122310586694311496
  1 settings made for volume
set atom 412 mass 58.27262992530410201652557589113712
  1 settings made for mass
set atom 413 volume 0.06424500746132941197963361901202
  1 settings made for volume
set atom 413 mass 57.82050671519647266904939897358418
  1 settings made for mass
set atom 414 volume 0.06632321847442250450921363835732
  1 settings made for volume
set atom 414 mass 59.69089662698025477993724052794278
  1 settings made for mass
set atom 415 volume 0.06805671005435236231573270515582
  1 settings made for volume
set atom 415 mass 61.25103904891712858216124004684389
  1 settings made for mass
set atom 416 volume 0.06644158560838892002564648464613
  1 settings made for volume
set atom 416 mass 59.79742704755003046557249035686255
  1 settings made for mass
set atom 417 volume 0.06547578412160928729157660654892
  1 settings made for volume
set atom 417 mass 58.92820570944835623095059418119490
  1 settings made for mass
set atom 418 volume 0.06600310825511337964321967319847
  1 settings made for volume
set atom 418 mass 59.40279742960203890334014431573451
  1 settings made for mass
set atom 419 volume 0.06624444544012242364061648913776
  1 settings made for volume
set atom 419 mass 59.62000089611018438517930917441845
  1 settings made for mass
set atom 420 volume 0.06484395460270926669910096507010
  1 settings made for volume
set atom 420 mass 58.35955914243834286025958135724068
  1 settings made for mass
set atom 421 volume 0.06526391500180406257669574188185
  1 settings made for volume
set atom 421 mass 58.73752350162365587493695784360170
  1 settings made for mass
set atom 422 volume 0.06509111448820986689511869371927
  1 settings made for volume
set atom 422 mass 58.58200303938887998356221942231059
  1 settings made for mass
set atom 423 volume 0.06544803307089282207176239580804
  1 settings made for volume
set atom 423 mass 58.90322976380353736658435082063079
  1 settings made for mass
set atom 424 volume 0.06615047044328492553688647603849
  1 settings made for volume
set atom 424 mass 59.53542339895643209501940873451531
  1 settings made for mass
set atom 425 volume 0.06665981499371236018713915427725
  1 settings made for volume
set atom 425 mass 59.99383349434112489007020485587418
  1 settings made for mass
set atom 426 volume 0.06526642450940625672650696742494
  1 settings made for volume
set atom 426 mass 58.73978205846562872238791896961629
  1 settings made for mass
set atom 427 volume 0.06570071395529819557879136482370
  1 settings made for volume
set atom 427 mass 59.13064255976837557682301849126816
  1 settings made for mass
set atom 428 volume 0.06591840805497548028135668118921
  1 settings made for volume
set atom 428 mass 59.32656724947793236424331553280354
  1 settings made for mass
set atom 429 volume 0.06674977142552628028848715757704
  1 settings made for volume
set atom 429 mass 60.07479428297364876243591425009072
  1 settings made for mass
set atom 430 volume 0.06363309497540298176332385082787
  1 settings made for volume
set atom 430 mass 57.26978547786268336494686082005501
  1 settings made for mass
set atom 431 volume 0.06619896568860351993013324545245
  1 settings made for volume
set atom 431 mass 59.57906911974316699343034997582436
  1 settings made for mass
set atom 432 volume 0.06478823324624127799609141220571
  1 settings made for volume
set atom 432 mass 58.30940992161715286101753008551896
  1 settings made for mass
set atom 433 volume 0.06608886559213156264291910702013
  1 settings made for volume
set atom 433 mass 59.47997903291840771089482586830854
  1 settings made for mass
set atom 434 volume 0.06557714023751687326679871148372
  1 settings made for volume
set atom 434 mass 59.01942621376518616216344526037574
  1 settings made for mass
set atom 435 volume 0.06452476140352263189736703452581
  1 settings made for volume
set atom 435 mass 58.07228526317037164972134632989764
  1 settings made for mass
set atom 436 volume 0.06551426475818061812006476429815
  1 settings made for volume
set atom 436 mass 58.96283828236255430965684354305267
  1 settings made for mass
set atom 437 volume 0.06572321900341331069039796375364
  1 settings made for volume
set atom 437 mass 59.15089710307197634620024473406374
  1 settings made for mass
set atom 438 volume 0.06568656899923527858753402597358
  1 settings made for volume
set atom 438 mass 59.11791209931175217207055538892746
  1 settings made for mass
set atom 439 volume 0.06619529610592457535833688098137
  1 settings made for volume
set atom 439 mass 59.57576649533211821108125150203705
  1 settings made for mass
set atom 440 volume 0.06636428939857279274416868020126
  1 settings made for volume
set atom 440 mass 59.72786045871551152686151908710599
  1 settings made for mass
set atom 441 volume 0.06565135335641859859467928117738
  1 settings made for volume
set atom 441 mass 59.08621802077674090014625107869506
  1 settings made for mass
set atom 442 volume 0.06649763820662185631604756963497
  1 settings made for volume
set atom 442 mass 59.84787438595967046239820774644613
  1 settings made for mass
set atom 443 volume 0.06563156899040513414522735047285
  1 settings made for volume
set atom 443 mass 59.06841209136462111928267404437065
  1 settings made for mass
set atom 444 volume 0.06620391840773494351868322382870
  1 settings made for volume
set atom 444 mass 59.58352656696144578063467633910477
  1 settings made for mass
set atom 445 volume 0.06438342744754294022513363415783
  1 settings made for volume
set atom 445 mass 57.94508470278864820102171506732702
  1 settings made for mass
set atom 446 volume 0.06504017499928869960879040945656
  1 settings made for volume
set atom 446 mass 58.53615749935983103569014929234982
  1 settings made for mass
set atom 447 volume 0.06643071831922087167043855515658
  1 settings made for volume
set atom 447 mass 59.78764648729878672384074889123440
  1 settings made for mass
set atom 448 volume 0.06569248650016942803198105593765
  1 settings made for volume
set atom 448 mass 59.12323785015248489571604295633733
  1 settings made for mass
set atom 449 volume 0.06504570233575929227853862357733
  1 settings made for volume
set atom 449 mass 58.54113210218336149637252674438059
  1 settings made for mass
set atom 450 volume 0.06594331784082393954626866161561
  1 settings made for volume
set atom 450 mass 59.34898605674154481448567821644247
  1 settings made for mass
set atom 451 volume 0.06454522192423231552460549664829
  1 settings made for volume
set atom 451 mass 58.09069973180908164067659527063370
  1 settings made for mass
set atom 452 volume 0.06642806691721751810586482633880
  1 settings made for volume
set atom 452 mass 59.78526022549576879328014911152422
  1 settings made for mass
set atom 453 volume 0.06586847180551787250823991826110
  1 settings made for volume
set atom 453 mass 59.28162462496608497986017027869821
  1 settings made for mass
set atom 454 volume 0.06737228780392007232435958030692
  1 settings made for volume
set atom 454 mass 60.63505902352806486987901735119522
  1 settings made for mass
set atom 455 volume 0.06529173096295548539558240008773
  1 settings made for volume
set atom 455 mass 58.76255786665993952055941917933524
  1 settings made for mass
set atom 456 volume 0.06594822734518598905673059107357
  1 settings made for volume
set atom 456 mass 59.35340461066738981799062457866967
  1 settings made for mass
set atom 457 volume 0.06584720041924740918659608723829
  1 settings made for volume
set atom 457 mass 59.26248037732266737975805881433189
  1 settings made for mass
set atom 458 volume 0.06521716158115374584181012096451
  1 settings made for volume
set atom 458 mass 58.69544542303837175722946994937956
  1 settings made for mass
set atom 459 volume 0.06499419641724338281285611174098
  1 settings made for volume
set atom 459 mass 58.49477677551904264419135870411992
  1 settings made for mass
set atom 460 volume 0.06454617597115509808336497599157
  1 settings made for volume
set atom 460 mass 58.09155837403958599907127791084349
  1 settings made for mass
set atom 461 volume 0.06406583072071676820957719655780
  1 settings made for volume
set atom 461 mass 57.65924764864509199924214044585824
  1 settings made for mass
set atom 462 volume 0.06582079626487222223651940566924
  1 settings made for volume
set atom 462 mass 59.23871663838500012388976756483316
  1 settings made for mass
set atom 463 volume 0.06590357702706801934500191464394
  1 settings made for volume
set atom 463 mass 59.31321932436122068565964582376182
  1 settings made for mass
set atom 464 volume 0.06453703881031236377907589485403
  1 settings made for volume
set atom 464 mass 58.08333492928112917752514476887882
  1 settings made for mass
set atom 465 volume 0.06545263410351623289962219587323
  1 settings made for volume
set atom 465 mass 58.90737069316460861045925412327051
  1 settings made for mass
set atom 466 volume 0.06478666056609506951335930580171
  1 settings made for volume
set atom 466 mass 58.30799450948556028606617473997176
  1 settings made for mass
set atom 467 volume 0.06641998249946189092352000216124
  1 settings made for volume
set atom 467 mass 59.77798424951570410712520242668688
  1 settings made for mass
set atom 468 volume 0.06479049665072082742067749450143
  1 settings made for volume
set atom 468 mass 58.31144698564874317980866180732846
  1 settings made for mass
set atom 469 volume 0.06589172460392722641131513228174
  1 settings made for volume
set atom 469 mass 59.30255214353450554654045845381916
  1 settings made for mass
set atom 470 volume 0.06572772057423105496187787366580
  1 settings made for volume
set atom 470 mass 59.15494851680794852200051536783576
  1 settings made for mass
[...]
  167500    3239.2846     6488      1325.42           50 
  167600    3241.4502     6488    1294.7669           50 
  167700    3243.6229     6488    1310.7671           50 
  167800     3245.788     6486    1322.1006           50 
  167900     3247.952     6486    1325.3992           50 
  168000    3250.1767     6486     1318.086           50 
  168100    3252.3575     6486    1333.4085           50 
  168200    3254.5257     6486    1316.5801           50 
  168300    3256.7013     6486    1310.3247           50 
  168400     3258.863     6486    1307.3249           50 
  168500    3261.0366     6486     1294.106           50 
  168600    3263.2037     6486    1282.7824           50 
  168700    3265.3671     6486    1287.3774           50 
  168800    3267.5255     6486    1265.5272           50 
  168900    3269.7003     6486    1244.1735           50 
  169000    3271.8815     6486    1283.1918           50 
  169100    3274.0419     6486    1263.3142           50 
  169200    3276.2098     6486    1289.0533           50 
  169300    3278.3815     6486    1286.9862           50 
  169400    3280.5635     6486     1284.975           50 
  169500    3282.6908     6486    1276.0087           50 
  169600    3284.7685     6486    1288.1682           50 
  169700    3286.8459     6486    1273.5536           50 
  169800    3288.9233     6486    1280.2576           50 
  169900    3291.0102     6486    1269.7536           50 
  170000    3293.0908     6486     1283.969           50 
  170100    3295.1602     6484    1277.1429           50 
  170200    3297.3391     6484    1297.5124           50 
  170300    3299.4996     6484    1291.7562           50 
  170400     3301.624     6484     1274.618           50 
  170500    3303.7122     6484    1276.8635           50 
  170600     3305.788     6484    1276.7516           50 
  170700    3307.8559     6484    1264.2224           50 
  170800    3309.9469     6484      1358.47           50 
  170900    3312.0117     6484    1320.5147           50 
  171000    3314.1003     6484    1345.9015           50 
  171100    3316.1792     6484    1353.5315           50 
  171200    3318.2579     6484    1386.9999           50 
  171300    3320.3383     6484    1349.1648           50 
  171400     3322.411     6483    1356.8161           50 
  171500    3324.4768     6483    1340.9946           50 
  171600    3326.5552     6483    1387.8907           50 
  171700    3328.6265     6483    1443.4481           50 
  171800    3330.7284     6483    1466.1472           50 
  171900    3332.7888     6483    1458.5144           50 
  172000    3334.8614     6483    1438.7002           50 
  172100    3336.9505     6483    1435.4052           50 
  172200    3339.0209     6483    1434.4998           50 
  172300    3341.0917     6483     1443.142           50 
  172400    3343.1616     6483    1433.2034           50 
  172500    3345.2294     6483    1391.0059           50 
  172600    3347.3197     6483    1385.2376           50 
  172700     3349.401     6483    1388.0416           50 
  172800    3351.4945     6483     1390.252           50 
  172900    3353.5605     6483    1388.1283           50 
  173000    3355.6781     6483    1414.8852           50 
  173100    3357.8152     6483    1413.2499           50 
  173200    3359.8874     6483    1419.7342           50 
  173300     3361.985     6480    1428.8897           50 
  173400    3364.0617     6480    1424.1751           50 
  173500    3366.1289     6480    1402.1468           50 
  173600    3368.1974     6480    1417.6973           50 
  173700    3370.2754     6480    1380.7952           50 
  173800    3372.3685     6480     1352.388           50 
  173900    3374.4451     6480    1370.7255           50 
  174000    3376.5092     6480    1354.3073           50 
  174100    3378.5762     6480    1335.8413           50 
  174200    3380.6576     6480    1333.9404           50 
  174300    3382.7353     6475    1357.0275           50 
  174400    3384.8113     6475    1361.0222           50 
  174500    3386.8825     6475    1346.0896           50 
  174600    3388.9592     6475    1326.6866           50 
  174700    3391.2277     6475    1310.0311           50 
  174800    3393.3025     6475     1333.994           50 
  174900    3395.3716     6475    1349.1601           50 
  175000    3397.4463     6475    1339.3935           50 
  175100    3399.5194     6475    1332.7156           50 
  175200    3401.6024     6475    1325.8912           50 
  175300    3403.6719     6475    1324.6595           50 
  175400    3405.7481     6475    1313.8684           50 
  175500    3407.8227     6475    1302.5541           50 
  175600    3409.8982     6473    1304.0106           50 
  175700    3411.9785     6473    1261.0083           50 
  175800    3414.0585     6473    1273.5978           50 
  175900    3416.1414     6473    1294.3154           50 
  176000    3418.2079     6473    1272.5426           50 
  176100    3420.2766     6473    1284.1546           50 
  176200    3422.3473     6473    1296.7969           50 
  176300    3424.4114     6473     1297.847           50 
  176400    3426.4876     6473    1300.4199           50 
  176500    3428.5689     6473    1313.8637           50 
  176600    3430.6472     6473    1321.0007           50 
  176700    3432.7179     6473    1342.6326           50 
  176800     3434.794     6473    1326.0779           50 
  176900    3436.8647     6473    1330.2626           50 
  177000    3438.9329     6473    1347.2728           50 
  177100     3440.994     6473    1343.2065           50 
  177200     3443.068     6473    1361.6671           50 
  177300    3445.1319     6473     1355.672           50 
  177400     3447.194     6473    1342.1657           50 
  177500    3449.2831     6473    1364.6685           50 
  177600    3451.3752     6473    1354.4655           50 
  177700    3453.4418     6473    1358.1294           50 
  177800    3455.5174     6473    1337.2699           50 
  177900    3457.5855     6471    1393.2416           50 
  178000    3459.6578     6471    1400.6005           50 
  178100    3461.7405     6471    1404.4409           50 
  178200    3463.8103     6471    1402.7989           50 
  178300    3465.8818     6471    1405.0808           50 
  178400    3467.9535     6470    1405.7866           50 
  178500    3470.0253     6470    1381.0882           50 
  178600    3472.1032     6470    1390.8347           50 
  178700    3474.1751     6470    1366.1541           50 
  178800    3476.2393     6470    1407.4051           50 
  178900    3478.3124     6470    1399.8332           50 
  179000    3480.3932     6470     1399.927           50 
  179100    3482.4654     6468     1390.282           50 
  179200    3484.5269     6468    1387.9549           50 
  179300    3486.5917     6468    1380.1499           50 
  179400    3488.6644     6468    1376.5782           50 
  179500    3490.7396     6468    1388.2924           50 
  179600    3492.8079     6468    1375.8827           50 
  179700     3494.881     6468    1392.6402           50 
  179800    3496.9548     6468    1408.3746           50 
  179900    3499.0341     6467    1377.2237           50 
  180000     3501.108     6467     1393.526           50 
  180100      3503.18     6467    1380.6307           50 
  180200    3505.2424     6467    1386.1882           50 
  180300    3507.3025     6467    1357.3355           50 
  180400    3509.3648     6467    1345.2524           50 
  180500    3511.4387     6467    1333.2271           50 
  180600    3513.5002     6467    1328.8396           50 
  180700    3515.5713     6467    1350.6078           50 
  180800    3517.6342     6467    1332.5435           50 
  180900    3519.7104     6466     1311.556           50 
  181000    3521.7702     6466    1330.4342           50 
  181100    3523.8333     6466    1312.4933           50 
  181200    3525.8953     6466    1317.0286           50 
  181300    3527.9737     6466    1314.7566           50 
  181400    3530.0456     6466    1306.3606           50 
  181500    3532.1031     6466    1335.1287           50 
  181600     3534.166     6466     1318.729           50 
  181700    3536.2289     6466    1331.8439           50 
  181800    3538.3354     6466    1368.3949           50 
  181900    3540.4011     6466      1356.44           50 
  182000    3542.4624     6466    1353.8912           50 
  182100    3544.5183     6466    1381.1706           50 
  182200    3546.5869     6466    1369.9375           50 
  182300    3548.6669     6466     1344.142           50 
  182400    3550.7676     6466    1326.0704           50 
  182500    3552.8462     6466    1335.3112           50 
  182600    3554.9152     6466     1320.531           50 
  182700    3556.9837     6466    1332.6852           50 
  182800    3559.0484     6466    1358.2805           50 
  182900     3561.121     6466    1317.2734           50 
  183000     3563.194     6466    1331.6316           50 
  183100    3565.2538     6466    1328.7983           50 
  183200    3567.3201     6466    1330.2919           50 
  183300    3569.3975     6466    1334.0497           50 
  183400    3571.4711     6466    1345.8016           50 
  183500    3573.5315     6466    1369.9877           50 
  183600    3575.5987     6464    1382.1262           50 
  183700    3577.6612     6464    1368.2783           50 
  183800    3579.7316     6464    1354.8837           50 
  183900    3581.8057     6464    1339.3547           50 
  184000    3583.8624     6464    1344.5806           50 
  184100    3585.9432     6464    1366.9737           50 
  184200    3588.0139     6464    1359.3463           50 
  184300    3590.0771     6464    1350.2359           50 
  184400     3592.149     6464    1328.7614           50 
  184500    3594.2125     6464    1340.0335           50 
  184600    3596.2695     6464    1387.7401           50 
  184700    3598.3344     6464    1372.4701           50 
  184800    3600.4097     6464    1352.3503           50 
  184900    3602.4862     6464    1383.0809           50 
  185000    3604.5497     6464    1347.2361           50 
  185100     3606.606     6464    1359.3585           50 
  185200    3608.6721     6464    1344.9582           50 
  185300    3610.7822     6464    1361.1259           50 
  185400     3612.852     6464    1349.2023           50 
  185500    3614.9118     6464    1349.3854           50 
  185600    3616.9858     6464    1338.1477           50 
  185700    3619.0437     6464    1350.1644           50 
  185800    3621.1087     6464    1332.7391           50 
  185900    3623.1699     6464    1349.8966           50 
  186000     3625.233     6464     1309.228           50 
  186100    3627.3218     6463    1311.7516           50 
  186200    3629.3851     6463     1300.374           50 
  186300    3631.4481     6463    1311.6178           50 
  186400    3633.5225     6463    1299.0606           50 
  186500    3635.5779     6463    1301.4224           50 
  186600    3637.6394     6463    1296.5522           50 
  186700    3639.7216     6463    1294.0045           50 
  186800    3641.7812     6463    1288.8406           50 
  186900    3643.8435     6463    1301.2571           50 
  187000    3645.9076     6463    1287.9738           50 
  187100    3647.9731     6463    1310.4808           50 
  187200    3650.0502     6463    1308.1808           50 
  187300    3652.1172     6463    1268.5997           50 
  187400      3654.18     6463    1296.9954           50 
  187500    3656.2618     6463      1288.74           50 
  187600     3658.323     6463    1296.3889           50 
  187700    3660.4027     6463    1290.7667           50 
  187800    3662.4695     6463    1283.3451           50 
  187900    3664.5363     6463    1289.2851           50 
  188000    3666.6066     6463     1295.312           50 
  188100    3668.6685     6463    1298.0901           50 
  188200    3670.7471     6463    1305.7926           50 
  188300    3672.8124     6463    1313.0761           50 
  188400     3674.874     6463    1328.1492           50 
  188500    3676.9456     6463    1335.5661           50 
  188600    3679.0048     6463    1314.2139           50 
  188700    3681.0646     6463    1330.1998           50 
  188800    3683.1291     6462    1310.9652           50 
  188900     3685.193     6462    1307.7373           50 
  189000    3687.2543     6462    1322.6891           50 
  189100    3689.3414     6462    1323.4761           50 
  189200    3691.4072     6462    1316.7141           50 
  189300    3693.4728     6462    1291.6705           50 
  189400    3695.5284     6462    1300.2117           50 
  189500    3697.5947     6462    1260.0995           50 
  189600    3699.6631     6462    1305.5551           50 
  189700    3701.7456     6462    1294.2728           50 
  189800    3703.8146     6462    1300.0861           50 
  189900    3705.8685     6462    1294.7274           50 
  190000    3707.9433     6462    1290.4337           50 
  190100    3710.0172     6462    1268.6518           50 
  190200    3712.0725     6462    1278.9354           50 
  190300    3714.1301     6462    1290.8728           50 
  190400    3716.2044     6462    1292.1864           50 
  190500    3718.2669     6462    1312.7335           50 
  190600    3720.3327     6462     1298.989           50 
  190700    3722.3988     6462    1268.0774           50 
  190800    3724.4693     6462    1268.3662           50 
  190900    3726.5247     6462    1251.6279           50 
  191000    3728.5882     6460    1264.6493           50 
  191100    3730.6651     6460    1252.1345           50 
  191200    3732.7379     6460    1284.5512           50 
  191300    3734.8041     6460    1267.4571           50 
  191400    3736.8858     6460     1260.665           50 
  191500    3738.9412     6460    1249.1462           50 
  191600    3741.0226     6460    1265.5794           50 
  191700    3743.0892     6460    1262.6704           50 
  191800    3745.1577     6460      1256.24           50 
  191900    3747.2226     6460     1249.689           50 
  192000    3749.2832     6460    1240.7418           50 
  192100    3751.3429     6460     1244.038           50 
  192200    3753.4016     6460    1236.9331           50 
  192300    3755.4579     6460    1252.2399           50 
  192400    3757.5135     6460    1263.4586           50 
  192500    3759.6287     6460    1278.4771           50 
  192600    3761.6882     6460    1280.7105           50 
  192700    3763.7562     6460    1262.0066           50 
  192800    3765.8199     6459    1261.3412           50 
  192900    3767.8819     6459    1251.5442           50 
  193000    3769.9407     6459    1245.7861           50 
  193100    3772.0055     6459    1224.2078           50 
  193200     3774.067     6459    1261.2216           50 
  193300     3776.136     6459    1261.7772           50 
  193400    3778.1894     6459    1247.9514           50 
  193500    3780.3095     6459    1268.0554           50 
  193600    3782.3861     6459    1279.8847           50 
  193700    3784.4427     6459    1266.7603           50 
  193800    3786.4921     6459    1271.7171           50 
  193900    3788.5561     6459    1290.2707           50 
  194000    3790.6365     6459    1277.4707           50 
  194100    3792.7078     6459    1284.2284           50 
  194200    3794.7822     6459    1290.6584           50 
  194300    3796.8706     6459    1289.1025           50 
  194400    3798.9329     6459    1273.5466           50 
  194500    3801.0002     6459    1274.5487           50 
  194600    3803.0536     6459    1277.7413           50 
  194700    3805.1249     6459     1268.983           50 
  194800    3807.1872     6459    1251.7351           50 
  194900    3809.2731     6459    1263.1322           50 
  195000    3811.3363     6459    1271.7659           50 
  195100    3813.3928     6459    1294.5811           50 
  195200    3815.4533     6459    1296.1159           50 
  195300    3817.5091     6459    1291.1192           50 
  195400    3819.5688     6459    1317.5667           50 
  195500    3821.6279     6459    1283.1873           50 
  195600    3823.6852     6459    1277.8409           50 
  195700    3825.7496     6459    1258.3354           50 
  195800    3827.8252     6459    1254.6297           50 
  195900    3829.8956     6459    1254.8546           50 
  196000    3831.9655     6459    1266.2486           50 
  196100    3834.0153     6459    1262.2482           50 
  196200     3836.077     6459    1250.5063           50 
  196300    3838.1329     6459    1281.6404           50 
  196400    3840.1989     6459    1274.2972           50 
  196500    3842.2643     6459    1238.4649           50 
  196600    3844.3261     6459    1236.9272           50 
  196700    3846.3999     6459    1232.7769           50 
  196800    3848.4531     6459    1235.8557           50 
  196900    3850.5889     6459    1244.3851           50 
  197000    3852.6976     6459    1247.1681           50 
  197100    3854.7667     6459    1235.4539           50 
  197200    3856.8401     6459    1226.7946           50 
  197300    3858.8951     6459    1225.4926           50 
  197400    3860.9682     6459    1212.6189           50 
  197500     3863.037     6459    1212.4297           50 
  197600    3865.1103     6459    1218.5389           50 
  197700    3867.1605     6459    1220.3227           50 
  197800    3869.2268     6459    1223.3409           50 
  197900    3871.2882     6459    1220.9822           50 
  198000    3873.3586     6459    1217.2158           50 
  198100    3875.4245     6459    1233.8438           50 
  198200    3877.4851     6459    1226.5346           50 
  198300    3879.5544     6459     1239.163           50 
  198400    3881.6225     6459    1249.7973           50 
  198500    3883.6837     6459    1218.7383           50 
  198600    3885.7458     6459    1218.3277           50 
  198700    3887.8133     6458    1246.3357           50 
  198800    3889.8814     6458    1267.1031           50 
  198900    3891.9488     6458    1260.3935           50 
  199000    3894.0117     6458    1284.4599           50 
  199100    3896.0705     6458    1274.1199           50 
  199200    3898.1427     6458    1269.0156           50 
  199300    3900.2186     6458    1263.1465           50 
  199400    3902.2784     6458    1266.8197           50 
  199500    3904.3402     6458    1256.7269           50 
  199600    3906.3971     6458     1233.915           50 
  199700    3908.4796     6458    1268.4715           50 
  199800      3910.55     6458    1261.7612           50 
  199900    3912.6134     6458    1246.1032           50 
  200000     3914.673     6458    1269.8662           50 
Loop time of 3914.67 on 1 procs for 180000 steps with 6458 atoms

99.3% CPU use with 1 MPI tasks x no OpenMP threads

MPI task timing breakdown:
Section |  min time  |  avg time  |  max time  |%varavg| %total
---------------------------------------------------------------
Pair    | 254.84     | 254.84     | 254.84     |   0.0 |  6.51
Neigh   | 0.96904    | 0.96904    | 0.96904    |   0.0 |  0.02
Comm    | 0.40483    | 0.40483    | 0.40483    |   0.0 |  0.01
Output  | 142.72     | 142.72     | 142.72     |   0.0 |  3.65
Modify  | 3509.2     | 3509.2     | 3509.2     |   0.0 | 89.64
Other   |            | 6.531      |            |       |  0.17

Nlocal:    6458 ave 6458 max 6458 min
Histogram: 1 0 0 0 0 0 0 0 0 0
Nghost:    0 ave 0 max 0 min
Histogram: 1 0 0 0 0 0 0 0 0 0
Neighs:    62746 ave 62746 max 62746 min
Histogram: 1 0 0 0 0 0 0 0 0 0

Total # of neighbors = 62746
Ave neighs/atom = 9.71601
Neighbor list builds = 298
Dangerous builds = 0

Please see the log.cite file for references relevant to this simulation

Total wall time: 1:10:47
