LAMMPS (17 Jan 2018)
###############################################
# General settings
###############################################

log         normal_rad.log
