atom_style  peri
units       si

###############################################
# Physical Constants
###############################################

include constant.include
variable c equal 9000000.00000000000000000000000000000000
variable hor equal 1.00000000000000000000000000000000
variable s00 equal 1000000000.00000000000000000000000000000000
variable alpha equal 0.10000000000000000555111512312578
variable dens equal 900.00000000000000000000000000000000
variable waterDensity equal 1017.00000000000000000000000000000000
variable airDensity equal 1.00000000000000000000000000000000
variable gravity equal 9.81000000000000049737991503207013
variable Cdo equal 10.00000000000000000000000000000000
variable Cda equal 10.00000000000000000000000000000000

###############################################
# Geometry-related parameters
###############################################

include simbox.include
boundary f f f
atom_modify map array
variable x0 equal 0.00000000000000000000000000000000
variable x1 equal 50.00000000000000000000000000000000
variable y0 equal 0.00000000000000000000000000000000
variable y1 equal 50.00000000000000000000000000000000
variable z0 equal -20.00000000000000000000000000000000
variable z1 equal 20.00000000000000000000000000000000
region boxreg block ${x0} ${x1} ${y0} ${y1} ${z0} ${z1} units box
region boxreg block 0 ${x1} ${y0} ${y1} ${z0} ${z1} units box
region boxreg block 0 50 ${y0} ${y1} ${z0} ${z1} units box
region boxreg block 0 50 0 ${y1} ${z0} ${z1} units box
region boxreg block 0 50 0 50 ${z0} ${z1} units box
region boxreg block 0 50 0 50 -20 ${z1} units box
region boxreg block 0 50 0 50 -20 20 units box
create_box 1 boxreg
Created orthogonal box = (0 0 -20) to (50 50 20)
  1 by 1 by 1 MPI processor grid

###############################################
# Create atoms
###############################################

include atom.include
lattice sc 1.00000000000000000000000000000000
Lattice spacing in x,y,z = 1 1 1
region slab1 block 0.00000000000000000000000000000000 23.75000000000000000000000000000000 ${y0} ${y1} -0.79100715766305840226380041713128 0.00000000000000000000000000000000 units box
region slab1 block 0.00000000000000000000000000000000 23.75000000000000000000000000000000 0 ${y1} -0.79100715766305840226380041713128 0.00000000000000000000000000000000 units box
region slab1 block 0.00000000000000000000000000000000 23.75000000000000000000000000000000 0 50 -0.79100715766305840226380041713128 0.00000000000000000000000000000000 units box
region slab2 block 26.25000000000000000000000000000000 50.00000000000000000000000000000000 ${y0} ${y1} -0.79100715766305840226380041713128 0.00000000000000000000000000000000 units box
region slab2 block 26.25000000000000000000000000000000 50.00000000000000000000000000000000 0 ${y1} -0.79100715766305840226380041713128 0.00000000000000000000000000000000 units box
region slab2 block 26.25000000000000000000000000000000 50.00000000000000000000000000000000 0 50 -0.79100715766305840226380041713128 0.00000000000000000000000000000000 units box
create_atoms 1 region slab1
Created 1200 atoms
  Time spent = 0.00324607 secs
create_atoms 1 region slab2
Created 1150 atoms
  Time spent = 0.00292206 secs
set atom 1 volume 0.52459342472966463688521798758302
  1 settings made for volume
set atom 1 mass 472.13408225669815010405727662146091
  1 settings made for mass
set atom 2 volume 0.51905970968478776228494098177180
  1 settings made for volume
set atom 2 mass 467.15373871630896474016481079161167
  1 settings made for mass
set atom 3 volume 0.52207876561178290231168830359820
  1 settings made for volume
set atom 3 mass 469.87088905060460319873527623713017
  1 settings made for mass
set atom 4 volume 0.52590530601065332838572885520989
  1 settings made for volume
set atom 4 mass 473.31477540958798044812283478677273
  1 settings made for mass
set atom 5 volume 0.52277166173055289455362526496174
  1 settings made for volume
set atom 5 mass 470.49449555749760065737063996493816
  1 settings made for mass
set atom 6 volume 0.52722902360411905142711930238875
  1 settings made for volume
set atom 6 mass 474.50612124370712763266055844724178
  1 settings made for mass
set atom 7 volume 0.52136364842173543721060013922397
  1 settings made for volume
set atom 7 mass 469.22728357956191302946535870432854
  1 settings made for mass
set atom 8 volume 0.52470172434161765906424079730641
  1 settings made for volume
set atom 8 mass 472.23155190745586651246412657201290
  1 settings made for mass
set atom 9 volume 0.52050933748033856307557698528399
  1 settings made for volume
set atom 9 mass 468.45840373230470277121639810502529
  1 settings made for mass
set atom 10 volume 0.52509372477363447373477356450167
  1 settings made for volume
set atom 10 mass 472.58435229627104945393512025475502
  1 settings made for mass
set atom 11 volume 0.52146846852777828384972735875635
  1 settings made for volume
set atom 11 mass 469.32162167500047189605538733303547
  1 settings made for mass
set atom 12 volume 0.52398044193351467345820537957479
  1 settings made for volume
set atom 12 mass 471.58239774016323053729138337075710
  1 settings made for mass
set atom 13 volume 0.52216178807846946874349214340327
  1 settings made for volume
set atom 13 mass 469.94560927062252631003502756357193
  1 settings made for mass
set atom 14 volume 0.52596820171967439971894009431708
  1 settings made for volume
set atom 14 mass 473.37138154770696019113529473543167
  1 settings made for mass
set atom 15 volume 0.51894727153910424899407871635049
  1 settings made for volume
set atom 15 mass 467.05254438519381210426217876374722
  1 settings made for mass
set atom 16 volume 0.52390875827568172962145354176755
  1 settings made for volume
set atom 16 mass 471.51788244811353933982900343835354
  1 settings made for mass
set atom 17 volume 0.52893420992823558801632088943734
  1 settings made for volume
set atom 17 mass 476.04078893541202432970749214291573
  1 settings made for mass
set atom 18 volume 0.51872426275635841186328889307333
  1 settings made for volume
set atom 18 mass 466.85183648072256801242474466562271
  1 settings made for mass
set atom 19 volume 0.51919837973967886135540084069362
  1 settings made for volume
set atom 19 mass 467.27854176571099742432124912738800
  1 settings made for mass
set atom 20 volume 0.52328486929571293995167025059345
  1 settings made for volume
set atom 20 mass 470.95638236614166771687450818717480
  1 settings made for mass
set atom 21 volume 0.52761152420819734665258238237584
  1 settings made for volume
set atom 21 mass 474.85037178737763952085515484213829
  1 settings made for mass
set atom 22 volume 0.52876888517664522026962004019879
  1 settings made for volume
set atom 22 mass 475.89199665898070179537171497941017
  1 settings made for mass
set atom 23 volume 0.52604618017809368080150989044341
  1 settings made for volume
set atom 23 mass 473.44156216028432027087546885013580
  1 settings made for mass
set atom 24 volume 0.51908370066246911633811578212772
  1 settings made for volume
set atom 24 mass 467.17533059622218161166529171168804
  1 settings made for mass
set atom 25 volume 0.52524214860121798409409166197293
  1 settings made for volume
set atom 25 mass 472.71793374109620344825088977813721
  1 settings made for mass
set atom 26 volume 0.52643631231040921569785950850928
  1 settings made for volume
set atom 26 mass 473.79268107936832166160456836223602
  1 settings made for mass
set atom 27 volume 0.52748498897635720528143110641395
  1 settings made for volume
set atom 27 mass 474.73649007872148786191246472299099
  1 settings made for mass
set atom 28 volume 0.52566413886703999835958711628336
  1 settings made for volume
set atom 28 mass 473.09772498033601095812628045678139
  1 settings made for mass
set atom 29 volume 0.52734247715974591486087774683256
  1 settings made for volume
set atom 29 mass 474.60822944377133580928784795105457
  1 settings made for mass
set atom 30 volume 0.52719425278116005539885691177915
  1 settings made for volume
set atom 30 mass 474.47482750304402543406467884778976
  1 settings made for mass
set atom 31 volume 0.51999911311626578758193772955565
  1 settings made for volume
set atom 31 mass 467.99920180463919905378133989870548
  1 settings made for mass
set atom 32 volume 0.52323812134832448084154066236806
  1 settings made for volume
set atom 32 mass 470.91430921349206073500681668519974
  1 settings made for mass
set atom 33 volume 0.52332269855980517725413392327027
  1 settings made for volume
set atom 33 mass 470.99042870382464798240107484161854
  1 settings made for mass
set atom 34 volume 0.52402437888058239767730128733092
  1 settings made for volume
set atom 34 mass 471.62194099252417345269350335001945
  1 settings made for mass
set atom 35 volume 0.52220855530064791416577918425901
  1 settings made for volume
set atom 35 mass 469.98769977058310587381129153072834
  1 settings made for mass
set atom 36 volume 0.51841038909088021924276290519629
  1 settings made for volume
set atom 36 mass 466.56935018179217422584770247340202
  1 settings made for mass
set atom 37 volume 0.52311134143961857123628078625188
  1 settings made for volume
set atom 37 mass 470.80020729565671899763401597738266
  1 settings made for mass
set atom 38 volume 0.52240891795015453880068889702670
  1 settings made for volume
set atom 38 mass 470.16802615513910268418840132653713
  1 settings made for mass
set atom 39 volume 0.51833429564653754617609138222178
  1 settings made for volume
set atom 39 mass 466.50086608188377113037859089672565
  1 settings made for mass
set atom 40 volume 0.52527212651134236320871195857762
  1 settings made for volume
set atom 40 mass 472.74491386020810068657738156616688
  1 settings made for mass
set atom 41 volume 0.52511741566627012645085414987989
  1 settings made for volume
set atom 41 mass 472.60567409964312446390977129340172
  1 settings made for mass
set atom 42 volume 0.52572483627320221177825487757218
  1 settings made for volume
set atom 42 mass 473.15235264588199015634017996490002
  1 settings made for mass
set atom 43 volume 0.52361789352753174142662828671746
  1 settings made for volume
set atom 43 mass 471.25610417477855662582442164421082
  1 settings made for mass
set atom 44 volume 0.52006194371180147761890566471266
  1 settings made for volume
set atom 44 mass 468.05574934062133252155035734176636
  1 settings made for mass
set atom 45 volume 0.52790060336617394831648653052980
  1 settings made for volume
set atom 45 mass 475.11054302955653838580474257469177
  1 settings made for mass
set atom 46 volume 0.51897658206224073218493231252069
  1 settings made for volume
set atom 46 mass 467.07892385601667228911537677049637
  1 settings made for mass
set atom 47 volume 0.52407766209463024775772055363632
  1 settings made for volume
set atom 47 mass 471.66989588516725007139029912650585
  1 settings made for mass
set atom 48 volume 0.52437480582148954244559035942075
  1 settings made for volume
set atom 48 mass 471.93732523934056644066004082560539
  1 settings made for mass
set atom 49 volume 0.52300123706739409801258489096654
  1 settings made for volume
set atom 49 mass 470.70111336065468776723719201982021
  1 settings made for mass
set atom 50 volume 0.52219075599701680889808130814345
  1 settings made for volume
set atom 50 mass 469.97168039731513999868184328079224
  1 settings made for mass
set atom 51 volume 0.52669027003140012066495501130703
  1 settings made for volume
set atom 51 mass 474.02124302826013035883079282939434
  1 settings made for mass
set atom 52 volume 0.52573351046867855540511982326279
  1 settings made for volume
set atom 52 mass 473.16015942181070386141072958707809
  1 settings made for mass
set atom 53 volume 0.51676238508742189381450771179516
  1 settings made for volume
set atom 53 mass 465.08614657867968844584538601338863
  1 settings made for mass
set atom 54 volume 0.53024828992314110287509265617700
  1 settings made for volume
set atom 54 mass 477.22346093082700235754600726068020
  1 settings made for mass
set atom 55 volume 0.52908965804990426562426364398561
  1 settings made for volume
set atom 55 mass 476.18069224491381419284152798354626
  1 settings made for mass
set atom 56 volume 0.52310327093510766705009018551209
  1 settings made for volume
set atom 56 mass 470.79294384159692299363086931407452
  1 settings made for mass
set atom 57 volume 0.52532139368125241318807638890576
  1 settings made for volume
set atom 57 mass 472.78925431312717364562558941543102
  1 settings made for mass
set atom 58 volume 0.52376661276452840532158461428480
  1 settings made for volume
set atom 58 mass 471.38995148807555324310669675469398
  1 settings made for mass
set atom 59 volume 0.51833401148284108383990087531856
  1 settings made for volume
set atom 59 mass 466.50061033455699543992523103952408
  1 settings made for mass
set atom 60 volume 0.52946658356548859103440918261185
  1 settings made for volume
set atom 60 mass 476.51992520893975324725033715367317
  1 settings made for mass
set atom 61 volume 0.51759466615088034480152145988541
  1 settings made for volume
set atom 61 mass 465.83519953579229877504985779523849
  1 settings made for mass
set atom 62 volume 0.52192109775741457600162220842321
  1 settings made for volume
set atom 62 mass 469.72898798167312861551181413233280
  1 settings made for mass
set atom 63 volume 0.52033703398631891978709518298274
  1 settings made for volume
set atom 63 mass 468.30333058768701448570936918258667
  1 settings made for mass
set atom 64 volume 0.52012190735633201388310453694430
  1 settings made for volume
set atom 64 mass 468.10971662069880494527751579880714
  1 settings made for mass
set atom 65 volume 0.52957057742674729095000429879292
  1 settings made for volume
set atom 65 mass 476.61351968407257118087727576494217
  1 settings made for mass
set atom 66 volume 0.52507132425411240372881138682715
  1 settings made for volume
set atom 66 mass 472.56419182870115491823526099324226
  1 settings made for mass
set atom 67 volume 0.52187094343969775422920065466315
  1 settings made for volume
set atom 67 mass 469.68384909572796459542587399482727
  1 settings made for mass
set atom 68 volume 0.52422514884952398084294600266730
  1 settings made for volume
set atom 68 mass 471.80263396457155522512039169669151
  1 settings made for mass
set atom 69 volume 0.52654858320463060472604865935864
  1 settings made for volume
set atom 69 mass 473.89372488416756823426112532615662
  1 settings made for mass
set atom 70 volume 0.52499886351603708423141370076337
  1 settings made for volume
set atom 70 mass 472.49897716443337003511260263621807
  1 settings made for mass
set atom 71 volume 0.52130815561768029109401823006920
  1 settings made for volume
set atom 71 mass 469.17734005591228196863085031509399
  1 settings made for mass
set atom 72 volume 0.52211889653560938917564726580167
  1 settings made for volume
set atom 72 mass 469.90700688204844936990411952137947
  1 settings made for mass
set atom 73 volume 0.52893795473694016351373647921719
  1 settings made for volume
set atom 73 mass 476.04415926324617203135858289897442
  1 settings made for mass
set atom 74 volume 0.52593663314371918993117560603423
  1 settings made for volume
set atom 74 mass 473.34296982934728248437750153243542
  1 settings made for mass
set atom 75 volume 0.53252036767222754587436384099419
  1 settings made for volume
set atom 75 mass 479.26833090500480238915770314633846
  1 settings made for mass
set atom 76 volume 0.52521479083477673466262558577000
  1 settings made for volume
set atom 76 mass 472.69331175129906341680907644331455
  1 settings made for mass
set atom 77 volume 0.52063547501236140391256412840448
  1 settings made for volume
set atom 77 mass 468.57192751112523865231196396052837
  1 settings made for mass
set atom 78 volume 0.52790592746512754462884231543285
  1 settings made for volume
set atom 78 mass 475.11533471861480393272358924150467
  1 settings made for mass
set atom 79 volume 0.51859991620380418986258064251160
  1 settings made for volume
set atom 79 mass 466.73992458342377176450099796056747
  1 settings made for mass
set atom 80 volume 0.52669464159402579195301541403751
  1 settings made for volume
set atom 80 mass 474.02517743462323096537147648632526
  1 settings made for mass
set atom 81 volume 0.52830632231398055864701746031642
  1 settings made for volume
set atom 81 mass 475.47569008258250278231571428477764
  1 settings made for mass
set atom 82 volume 0.52357733790859561917585551782395
  1 settings made for volume
set atom 82 mass 471.21960411773608257135492749512196
  1 settings made for mass
set atom 83 volume 0.52707044829698634913484056596644
  1 settings made for volume
set atom 83 mass 474.36340346728769645778811536729336
  1 settings made for mass
set atom 84 volume 0.52576219785564204389771703063161
  1 settings made for volume
set atom 84 mass 473.18597807007785149835399352014065
  1 settings made for mass
set atom 85 volume 0.51756890835917623849837809757446
  1 settings made for volume
set atom 85 mass 465.81201752325858933545532636344433
  1 settings made for mass
set atom 86 volume 0.52384314728979797237684579158667
  1 settings made for volume
set atom 86 mass 471.45883256081816625737701542675495
  1 settings made for mass
set atom 87 volume 0.52460289305625573685887275132700
  1 settings made for volume
set atom 87 mass 472.14260375063014407714945264160633
  1 settings made for mass
set atom 88 volume 0.52870085215063999939388850179967
  1 settings made for volume
set atom 88 mass 475.83076693557597991457441821694374
  1 settings made for mass
set atom 89 volume 0.52234266539442997245856759036542
  1 settings made for volume
set atom 89 mass 470.10839885498700141397421248257160
  1 settings made for mass
set atom 90 volume 0.52272755576814911027128118803375
  1 settings made for volume
set atom 90 mass 470.45480019133418636556598357856274
  1 settings made for mass
set atom 91 volume 0.52264271410882690016563856261200
  1 settings made for volume
set atom 91 mass 470.37844269794419460595236159861088
  1 settings made for mass
set atom 92 volume 0.52201638099445479834770367233432
  1 settings made for volume
set atom 92 mass 469.81474289500931718066567555069923
  1 settings made for mass
set atom 93 volume 0.52131599877131440390343186663813
  1 settings made for volume
set atom 93 mass 469.18439889418294796996633522212505
  1 settings made for mass
set atom 94 volume 0.52180292469032285573860008298652
  1 settings made for volume
set atom 94 mass 469.62263222129058704013004899024963
  1 settings made for mass
set atom 95 volume 0.51828692725034675170547870948212
  1 settings made for volume
set atom 95 mass 466.45823452531209341032081283628941
  1 settings made for mass
set atom 96 volume 0.51748724007285440418257849160000
  1 settings made for volume
set atom 96 mass 465.73851606556894466848461888730526
  1 settings made for mass
set atom 97 volume 0.52610257443529917509295046329498
  1 settings made for volume
set atom 97 mass 473.49231699176925758365541696548462
  1 settings made for mass
set atom 98 volume 0.51939594773505282088166268295026
  1 settings made for volume
set atom 98 mass 467.45635296154756588293821550905704
  1 settings made for mass
set atom 99 volume 0.52595634778524846808522852370515
  1 settings made for volume
set atom 99 mass 473.36071300672364259298774413764477
  1 settings made for mass
set atom 100 volume 0.53632164057012088331788390860311
  1 settings made for volume
set atom 100 mass 482.68947651310878654840053059160709
  1 settings made for mass
set atom 101 volume 0.51994613662597377601315429274109
  1 settings made for volume
set atom 101 mass 467.95152296337641928403172641992569
  1 settings made for mass
set atom 102 volume 0.52215612510268327728368831230910
  1 settings made for volume
set atom 102 mass 469.94051259241496154572814702987671
  1 settings made for mass
set atom 103 volume 0.52609558782777021690435503842309
  1 settings made for volume
set atom 103 mass 473.48602904499318810849217697978020
  1 settings made for mass
set atom 104 volume 0.52649541799089816240808659131289
  1 settings made for volume
set atom 104 mass 473.84587619180837236854131333529949
  1 settings made for mass
set atom 105 volume 0.52117876470323132309658831218258
  1 settings made for volume
set atom 105 mass 469.06088823290821210321155376732349
  1 settings made for mass
set atom 106 volume 0.51837516298418540028336565228528
  1 settings made for volume
set atom 106 mass 466.53764668576684471190674230456352
  1 settings made for mass
set atom 107 volume 0.52744661912622403665551473750384
  1 settings made for volume
set atom 107 mass 474.70195721360164498037192970514297
  1 settings made for mass
set atom 108 volume 0.52756413898912157822707058585365
  1 settings made for volume
set atom 108 mass 474.80772509020943061841535381972790
  1 settings made for mass
set atom 109 volume 0.52524927669377152739116354496218
  1 settings made for volume
set atom 109 mass 472.72434902439437109933351166546345
  1 settings made for mass
set atom 110 volume 0.52589822199150515480425838177325
  1 settings made for volume
set atom 110 mass 473.30839979235463488294044509530067
  1 settings made for mass
set atom 111 volume 0.52578201637320731709479559867759
  1 settings made for volume
set atom 111 mass 473.20381473588656717765843495726585
  1 settings made for mass
set atom 112 volume 0.52068193541663021495224938917090
  1 settings made for volume
set atom 112 mass 468.61374187496721788193099200725555
  1 settings made for mass
set atom 113 volume 0.52129613030649823990358981973259
  1 settings made for volume
set atom 113 mass 469.16651727584843456497765146195889
  1 settings made for mass
set atom 114 volume 0.53085747635034041813639760221122
  1 settings made for volume
set atom 114 mass 477.77172871530638076364994049072266
  1 settings made for mass
set atom 115 volume 0.52409773042073903859261463367147
  1 settings made for volume
set atom 115 mass 471.68795737866514627967262640595436
  1 settings made for mass
set atom 116 volume 0.52496876424605165567527365055867
  1 settings made for volume
set atom 116 mass 472.47188782144650076588732190430164
  1 settings made for mass
set atom 117 volume 0.52636141769654687383450664128759
  1 settings made for volume
set atom 117 mass 473.72527592689220909960567951202393
  1 settings made for mass
set atom 118 volume 0.52001571097085885764244039819459
  1 settings made for volume
set atom 118 mass 468.01413987377299008585396222770214
  1 settings made for mass
set atom 119 volume 0.52196932188025635390715706307674
  1 settings made for volume
set atom 119 mass 469.77238969223071762826293706893921
  1 settings made for mass
set atom 120 volume 0.51690553636410718763016802768107
  1 settings made for volume
set atom 120 mass 465.21498272769645154767204076051712
  1 settings made for mass
set atom 121 volume 0.51801954935600480478541385309654
  1 settings made for volume
set atom 121 mass 466.21759442040433896181639283895493
  1 settings made for mass
set atom 122 volume 0.52628031073553493968120164936408
  1 settings made for volume
set atom 122 mass 473.65227966198142439679941162467003
  1 settings made for mass
set atom 123 volume 0.52302879106277433418625832928228
  1 settings made for volume
set atom 123 mass 470.72591195649687279001227580010891
  1 settings made for mass
set atom 124 volume 0.52749502805109871328426152103930
  1 settings made for volume
set atom 124 mass 474.74552524598885838713613338768482
  1 settings made for mass
set atom 125 volume 0.52306968221561656040563548231148
  1 settings made for volume
set atom 125 mass 470.76271399405487727563013322651386
  1 settings made for mass
set atom 126 volume 0.52332311975062550946091732839704
  1 settings made for volume
set atom 126 mass 470.99080777556298471608897671103477
  1 settings made for mass
set atom 127 volume 0.52961544463830845241858469307772
  1 settings made for volume
set atom 127 mass 476.65390017447759873903123661875725
  1 settings made for mass
set atom 128 volume 0.52561581850473204635676438556402
  1 settings made for volume
set atom 128 mass 473.05423665425882973067928105592728
  1 settings made for mass
set atom 129 volume 0.52769055798224517861427784737316
  1 settings made for volume
set atom 129 mass 474.92150218402065320333349518477917
  1 settings made for mass
set atom 130 volume 0.52816374970321988691068781918148
  1 settings made for volume
set atom 130 mass 475.34737473289789022601325996220112
  1 settings made for mass
set atom 131 volume 0.52299562145805600366088583541568
  1 settings made for volume
set atom 131 mass 470.69605931225038375487201847136021
  1 settings made for mass
set atom 132 volume 0.52400913249286984463282124124817
  1 settings made for volume
set atom 132 mass 471.60821924358288015355356037616730
  1 settings made for mass
set atom 133 volume 0.52531309174443907572538137173979
  1 settings made for volume
set atom 133 mass 472.78178256999518680459004826843739
  1 settings made for mass
set atom 134 volume 0.52437818743278452604528183655930
  1 settings made for volume
set atom 134 mass 471.94036868950610141837387345731258
  1 settings made for mass
set atom 135 volume 0.51922283463534746328349456234719
  1 settings made for volume
set atom 135 mass 467.30055117181274226823006756603718
  1 settings made for mass
set atom 136 volume 0.51934269971289759304511335358256
  1 settings made for volume
set atom 136 mass 467.40842974160784706327831372618675
  1 settings made for mass
set atom 137 volume 0.52392336483773627175963838453754
  1 settings made for volume
set atom 137 mass 471.53102835396265390954795293509960
  1 settings made for mass
set atom 138 volume 0.51893563730096292641036370696384
  1 settings made for volume
set atom 138 mass 467.04207357086664842427126131951809
  1 settings made for mass
set atom 139 volume 0.52317178538567132850545249311836
  1 settings made for volume
set atom 139 mass 470.85460684710420764531590975821018
  1 settings made for mass
set atom 140 volume 0.52237483757730407418762297311332
  1 settings made for volume
set atom 140 mass 470.13735381957366143979015760123730
  1 settings made for mass
set atom 141 volume 0.52338597099519723609972743361141
  1 settings made for volume
set atom 141 mass 471.04737389567753780283965170383453
  1 settings made for mass
set atom 142 volume 0.52333893160423827772831373295048
  1 settings made for volume
set atom 142 mass 471.00503844381444196187658235430717
  1 settings made for mass
set atom 143 volume 0.52335192237355820932265260125860
  1 settings made for volume
set atom 143 mass 471.01673013620239771626074798405170
  1 settings made for mass
set atom 144 volume 0.52241374530835960054986344403005
  1 settings made for volume
set atom 144 mass 470.17237077752366758431890048086643
  1 settings made for mass
set atom 145 volume 0.52071921370433471576433248628746
  1 settings made for volume
set atom 145 mass 468.64729233390124818470212630927563
  1 settings made for mass
set atom 146 volume 0.52750045028075620567875603228458
  1 settings made for volume
set atom 146 mass 474.75040525268059354857541620731354
  1 settings made for mass
set atom 147 volume 0.52224118225690907557634545810288
  1 settings made for volume
set atom 147 mass 470.01706403121818311774404719471931
  1 settings made for mass
set atom 148 volume 0.52277618113397172905365550832357
  1 settings made for volume
set atom 148 mass 470.49856302057457924092886969447136
  1 settings made for mass
set atom 149 volume 0.52651479773787479565783087309683
  1 settings made for volume
set atom 149 mass 473.86331796408734362557879649102688
  1 settings made for mass
set atom 150 volume 0.51925785061565954414675161388004
  1 settings made for volume
set atom 150 mass 467.33206555409361726560746319591999
  1 settings made for mass
set atom 151 volume 0.52122713469685466591840850014705
  1 settings made for volume
set atom 151 mass 469.10442122716921176106552593410015
  1 settings made for mass
set atom 152 volume 0.52655116200043694529853155472665
  1 settings made for volume
set atom 152 mass 473.89604580039326719997916370630264
  1 settings made for mass
set atom 153 volume 0.52756757493159422978123984648846
  1 settings made for volume
set atom 153 mass 474.81081743843481035582954064011574
  1 settings made for mass
set atom 154 volume 0.51760314584446653896065981825814
  1 settings made for volume
set atom 154 mass 465.84283126001986374831176362931728
  1 settings made for mass
set atom 155 volume 0.52644602109504234910275499714771
  1 settings made for volume
set atom 155 mass 473.80141898553813462058315053582191
  1 settings made for mass
set atom 156 volume 0.52317671341245974847566913012997
  1 settings made for volume
set atom 156 mass 470.85904207121376430222881026566029
  1 settings made for mass
set atom 157 volume 0.52303283630990160535390032237046
  1 settings made for volume
set atom 157 mass 470.72955267891143193992320448160172
  1 settings made for mass
set atom 158 volume 0.52361062704391780897594799171202
  1 settings made for volume
set atom 158 mass 471.24956433952604584192158654332161
  1 settings made for mass
set atom 159 volume 0.52785424068399000585571911869920
  1 settings made for volume
set atom 159 mass 475.06881661559100393787957727909088
  1 settings made for mass
set atom 160 volume 0.52438657712045877445916630676948
  1 settings made for volume
set atom 160 mass 471.94791940841287214425392448902130
  1 settings made for mass
set atom 161 volume 0.52541311848315597199388093940797
  1 settings made for volume
set atom 161 mass 472.87180663484036813315469771623611
  1 settings made for mass
set atom 162 volume 0.52812168038302087502700032928260
  1 settings made for volume
set atom 162 mass 475.30951234471876887255348265171051
  1 settings made for mass
set atom 163 volume 0.52254318374088437604285672932747
  1 settings made for volume
set atom 163 mass 470.28886536679596019894233904778957
  1 settings made for mass
set atom 164 volume 0.52887463936963718946770995898987
  1 settings made for volume
set atom 164 mass 475.98717543267349583402392454445362
  1 settings made for mass
set atom 165 volume 0.52149363866201081663120930898003
  1 settings made for volume
set atom 165 mass 469.34427479580972430994734168052673
  1 settings made for mass
set atom 166 volume 0.51418106628331639029738653334789
  1 settings made for volume
set atom 166 mass 462.76295965498474060950684361159801
  1 settings made for mass
set atom 167 volume 0.52375078340365932572098017772078
  1 settings made for volume
set atom 167 mass 471.37570506329336694761877879500389
  1 settings made for mass
set atom 168 volume 0.52461980886945591695535995313548
  1 settings made for volume
set atom 168 mass 472.15782798251029817038215696811676
  1 settings made for mass
set atom 169 volume 0.52207683918035252546019364672247
  1 settings made for volume
set atom 169 mass 469.86915526231729245409951545298100
  1 settings made for mass
set atom 170 volume 0.51470129386523233439021396407043
  1 settings made for volume
set atom 170 mass 463.23116447870910405981703661382198
  1 settings made for mass
set atom 171 volume 0.52974341709528471877632682662806
  1 settings made for volume
set atom 171 mass 476.76907538575625267185387201607227
  1 settings made for mass
set atom 172 volume 0.52598691418496201777088572271168
  1 settings made for volume
set atom 172 mass 473.38822276646578757208772003650665
  1 settings made for mass
set atom 173 volume 0.52150710762565055667039359832415
  1 settings made for volume
set atom 173 mass 469.35639686308547879889374598860741
  1 settings made for mass
set atom 174 volume 0.52063008665742216418692578372429
  1 settings made for volume
set atom 174 mass 468.56707799167992334332666359841824
  1 settings made for mass
set atom 175 volume 0.52944971429895559822398354299366
  1 settings made for volume
set atom 175 mass 476.50474286906000997987575829029083
  1 settings made for mass
set atom 176 volume 0.52380097340225240110100912716007
  1 settings made for volume
set atom 176 mass 471.42087606202716187908663414418697
  1 settings made for mass
set atom 177 volume 0.51864655031553585917691862050560
  1 settings made for volume
set atom 177 mass 466.78189528398229413141962140798569
  1 settings made for mass
set atom 178 volume 0.52309651292235415098730300087482
  1 settings made for volume
set atom 178 mass 470.78686163011872167771798558533192
  1 settings made for mass
set atom 179 volume 0.52064551454973417854432682361221
  1 settings made for volume
set atom 179 mass 468.58096309476076157807256095111370
  1 settings made for mass
set atom 180 volume 0.52170127569175661630396234613727
  1 settings made for volume
set atom 180 mass 469.53114812258093024865956977009773
  1 settings made for mass
set atom 181 volume 0.52491530683631448805925856504473
  1 settings made for volume
set atom 181 mass 472.42377615268304680284927599132061
  1 settings made for mass
set atom 182 volume 0.52602571480713100626758205180522
  1 settings made for volume
set atom 182 mass 473.42314332641791452260804362595081
  1 settings made for mass
set atom 183 volume 0.52059349370494734099423794759787
  1 settings made for volume
set atom 183 mass 468.53414433445260556254652328789234
  1 settings made for mass
set atom 184 volume 0.52098551821327110378234692689148
  1 settings made for volume
set atom 184 mass 468.88696639194398585459566675126553
  1 settings made for mass
set atom 185 volume 0.52207148723096097331364262572606
  1 settings made for volume
set atom 185 mass 469.86433850786488619633018970489502
  1 settings made for mass
set atom 186 volume 0.51910600103535819993538780181552
  1 settings made for volume
set atom 186 mass 467.19540093182240525493398308753967
  1 settings made for mass
set atom 187 volume 0.52112140847285082223550034541404
  1 settings made for volume
set atom 187 mass 469.00926762556571247841930016875267
  1 settings made for mass
set atom 188 volume 0.52254379467284683968841818568762
  1 settings made for volume
set atom 188 mass 470.28941520556213617965113371610641
  1 settings made for mass
set atom 189 volume 0.52503570456258208398736542221741
  1 settings made for volume
set atom 189 mass 472.53213410632389468446490354835987
  1 settings made for mass
set atom 190 volume 0.51991010829152706218536650339956
  1 settings made for volume
set atom 190 mass 467.91909746237433864735066890716553
  1 settings made for mass
set atom 191 volume 0.52701907035685036095884470341844
  1 settings made for volume
set atom 191 mass 474.31716332116531020801630802452564
  1 settings made for mass
set atom 192 volume 0.52604491019804699991624374888488
  1 settings made for volume
set atom 192 mass 473.44041917824227994060493074357510
  1 settings made for mass
set atom 193 volume 0.52365968422633479839589654147858
  1 settings made for volume
set atom 193 mass 471.29371580370133187898318283259869
  1 settings made for mass
set atom 194 volume 0.52550670802512389201410769601353
  1 settings made for volume
set atom 194 mass 472.95603722261148504912853240966797
  1 settings made for mass
set atom 195 volume 0.52381961416063294034728414771962
  1 settings made for volume
set atom 195 mass 471.43765274456961833493551239371300
  1 settings made for mass
set atom 196 volume 0.52375258161736948370190702917171
  1 settings made for volume
set atom 196 mass 471.37732345563256330933654680848122
  1 settings made for mass
set atom 197 volume 0.51957989881698907197460357565433
  1 settings made for volume
set atom 197 mass 467.62190893529015056628850288689137
  1 settings made for mass
set atom 198 volume 0.52429639819849449544619801599765
  1 settings made for volume
set atom 198 mass 471.86675837864504501339979469776154
  1 settings made for mass
set atom 199 volume 0.52063076450595191513315285192220
  1 settings made for volume
set atom 199 mass 468.56768805535671162942890077829361
  1 settings made for mass
set atom 200 volume 0.52476778872202589631967839522986
  1 settings made for volume
set atom 200 mass 472.29100984982329691774793900549412
  1 settings made for mass
set atom 201 volume 0.52023484943535525104607586399652
  1 settings made for volume
set atom 201 mass 468.21136449181972238875459879636765
  1 settings made for mass
set atom 202 volume 0.52093499631500173041587231637095
  1 settings made for volume
set atom 202 mass 468.84149668350153206120012328028679
  1 settings made for mass
set atom 203 volume 0.52191705667093291065583571253228
  1 settings made for volume
set atom 203 mass 469.72535100383959161263192072510719
  1 settings made for mass
set atom 204 volume 0.52036421689212153385284409523592
  1 settings made for volume
set atom 204 mass 468.32779520290938535254099406301975
  1 settings made for mass
set atom 205 volume 0.52400489272895667269835939805489
  1 settings made for volume
set atom 205 mass 471.60440345606099299402558244764805
  1 settings made for mass
set atom 206 volume 0.51574653973458262079532232746715
  1 settings made for volume
set atom 206 mass 464.17188576112437203846639022231102
  1 settings made for mass
set atom 207 volume 0.52786085675441885012304510382819
  1 settings made for volume
set atom 207 mass 475.07477107897693713312037289142609
  1 settings made for mass
set atom 208 volume 0.52276868502365614332916265993845
  1 settings made for volume
set atom 208 mass 470.49181652129050235089380294084549
  1 settings made for mass
set atom 209 volume 0.52417522786185655192525700840633
  1 settings made for volume
set atom 209 mass 471.75770507567091271994286216795444
  1 settings made for mass
set atom 210 volume 0.52148859371530931205995784694096
  1 settings made for volume
set atom 210 mass 469.33973434377838884756783954799175
  1 settings made for mass
set atom 211 volume 0.52313406515233451532509434400708
  1 settings made for volume
set atom 211 mass 470.82065863710107578299357555806637
  1 settings made for mass
set atom 212 volume 0.52700966118800673942956791506731
  1 settings made for volume
set atom 212 mass 474.30869506920606681887875311076641
  1 settings made for mass
set atom 213 volume 0.52446586208420298280685756253661
  1 settings made for volume
set atom 213 mass 472.01927587578268230572575703263283
  1 settings made for mass
set atom 214 volume 0.52542912320449386420762039051624
  1 settings made for volume
set atom 214 mass 472.88621088404448755682096816599369
  1 settings made for mass
set atom 215 volume 0.52436633095888429689779286491103
  1 settings made for volume
set atom 215 mass 471.92969786299585166489123366773129
  1 settings made for mass
set atom 216 volume 0.52534519200592000309768536681077
  1 settings made for volume
set atom 216 mass 472.81067280532801078152260743081570
  1 settings made for mass
set atom 217 volume 0.51852551890980813631415458075935
  1 settings made for volume
set atom 217 mass 466.67296701882730758370598778128624
  1 settings made for mass
set atom 218 volume 0.52361814945127904685762132430682
  1 settings made for volume
set atom 218 mass 471.25633450615111996739869937300682
  1 settings made for mass
set atom 219 volume 0.52132998940235586449176707901643
  1 settings made for volume
set atom 219 mass 469.19699046212025450586224906146526
  1 settings made for mass
set atom 220 volume 0.52289328619633690387047408876242
  1 settings made for volume
set atom 220 mass 470.60395757670323746424401178956032
  1 settings made for mass
set atom 221 volume 0.52558958109661635393905498858658
  1 settings made for volume
set atom 221 mass 473.03062298695471099563292227685452
  1 settings made for mass
set atom 222 volume 0.52229905311430901981850638549076
  1 settings made for volume
set atom 222 mass 470.06914780287809207948157563805580
  1 settings made for mass
set atom 223 volume 0.52407620023202916570426168618724
  1 settings made for volume
set atom 223 mass 471.66858020882625623926287516951561
  1 settings made for mass
set atom 224 volume 0.52492876957758183298352605561377
  1 settings made for volume
set atom 224 mass 472.43589261982367588643683120608330
  1 settings made for mass
set atom 225 volume 0.52337433773164609984718254054314
  1 settings made for volume
set atom 225 mass 471.03690395848150274105137214064598
  1 settings made for mass
set atom 226 volume 0.52198984667744063870031823171303
  1 settings made for volume
set atom 226 mass 469.79086200969658193571376614272594
  1 settings made for mass
set atom 227 volume 0.52306376326498427165034854624537
  1 settings made for volume
set atom 227 mass 470.75738693848586535750655457377434
  1 settings made for mass
set atom 228 volume 0.52243974786067626236985006471514
  1 settings made for volume
set atom 228 mass 470.19577307460860993160167708992958
  1 settings made for mass
set atom 229 volume 0.52050149230925402132896806506324
  1 settings made for volume
set atom 229 mass 468.45134307832859121845103800296783
  1 settings made for mass
set atom 230 volume 0.52132988835306293129434607180883
  1 settings made for volume
set atom 230 mass 469.19689951775666258981800638139248
  1 settings made for mass
set atom 231 volume 0.52216056215819539598754772669054
  1 settings made for volume
set atom 231 mass 469.94450594237588347823475487530231
  1 settings made for mass
set atom 232 volume 0.52773345601598986576163952122442
  1 settings made for volume
set atom 232 mass 474.96011041439089694904396310448647
  1 settings made for mass
set atom 233 volume 0.52339108393329258905879441954312
  1 settings made for volume
set atom 233 mass 471.05197553996333681425312533974648
  1 settings made for mass
set atom 234 volume 0.52048834063928650639496709118248
  1 settings made for volume
set atom 234 mass 468.43950657535788195673376321792603
  1 settings made for mass
set atom 235 volume 0.52359935741059204783454106291174
  1 settings made for volume
set atom 235 mass 471.23942166953281684982357546687126
  1 settings made for mass
set atom 236 volume 0.52190650138334437890819117455976
  1 settings made for volume
set atom 236 mass 469.71585124500995789276203140616417
  1 settings made for mass
set atom 237 volume 0.52648144801488194755023641846492
  1 settings made for volume
set atom 237 mass 473.83330321339377633194089867174625
  1 settings made for mass
set atom 238 volume 0.52022777328209079961141014791792
  1 settings made for volume
set atom 238 mass 468.20499595388173474930226802825928
  1 settings made for mass
set atom 239 volume 0.52369271112720972016774112489657
  1 settings made for volume
set atom 239 mass 471.32344001448876724680303595960140
  1 settings made for mass
set atom 240 volume 0.52294806146706052096817529672990
  1 settings made for volume
set atom 240 mass 470.65325532035444666689727455377579
  1 settings made for mass
set atom 241 volume 0.52463181860245333698600234129117
  1 settings made for volume
set atom 241 mass 472.16863674220797975067398510873318
  1 settings made for mass
set atom 242 volume 0.52504340967704210552113863741397
  1 settings made for volume
set atom 242 mass 472.53906870933786876776139251887798
  1 settings made for mass
set atom 243 volume 0.52541988557026608752664742496563
  1 settings made for volume
set atom 243 mass 472.87789701323947610944742336869240
  1 settings made for mass
set atom 244 volume 0.52706691018496265588311189276283
  1 settings made for volume
set atom 244 mass 474.36021916646637919257045723497868
  1 settings made for mass
set atom 245 volume 0.52490174904252684395800088168471
  1 settings made for volume
set atom 245 mass 472.41157413827414757179212756454945
  1 settings made for mass
set atom 246 volume 0.51909533749182501516372667538235
  1 settings made for volume
set atom 246 mass 467.18580374264251986460294574499130
  1 settings made for mass
set atom 247 volume 0.52468483833024370799336111304001
  1 settings made for volume
set atom 247 mass 472.21635449721935628986102528870106
  1 settings made for mass
set atom 248 volume 0.52574667037212319264938287233235
  1 settings made for volume
set atom 248 mass 473.17200333491086894355248659849167
  1 settings made for mass
set atom 249 volume 0.51968389314844365411971693902160
  1 settings made for volume
set atom 249 mass 467.71550383359931402083020657300949
  1 settings made for mass
set atom 250 volume 0.52290378998860842507667712197872
  1 settings made for volume
set atom 250 mass 470.61341098974759233897202648222446
  1 settings made for mass
set atom 251 volume 0.52127326179839517106273660829174
  1 settings made for volume
set atom 251 mass 469.14593561855565440055215731263161
  1 settings made for mass
set atom 252 volume 0.52310614426203527749237309762975
  1 settings made for volume
set atom 252 mass 470.79552983583175773674156516790390
  1 settings made for mass
set atom 253 volume 0.52916845826283098741527055608458
  1 settings made for volume
set atom 253 mass 476.25161243654787313062115572392941
  1 settings made for mass
set atom 254 volume 0.52859444258038801311982979314052
  1 settings made for volume
set atom 254 mass 475.73499832234921314011444337666035
  1 settings made for mass
set atom 255 volume 0.52370487432938084282341151265427
  1 settings made for volume
set atom 255 mass 471.33438689644276564649771898984909
  1 settings made for mass
set atom 256 volume 0.52308288380297562891740881241276
  1 settings made for volume
set atom 256 mass 470.77459542267808956239605322480202
  1 settings made for mass
set atom 257 volume 0.52168863961599221124032510488178
  1 settings made for volume
set atom 257 mass 469.51977565439301542937755584716797
  1 settings made for mass
set atom 258 volume 0.52692954701877026124634539883118
  1 settings made for volume
set atom 258 mass 474.23659231689322268721298314630985
  1 settings made for mass
set atom 259 volume 0.51999242297367986864742306352127
  1 settings made for volume
set atom 259 mass 467.99318067631190842803334817290306
  1 settings made for mass
set atom 260 volume 0.52428859257037097041376227934961
  1 settings made for volume
set atom 260 mass 471.85973331333389069186523556709290
  1 settings made for mass
set atom 261 volume 0.52905077628499486142032992574968
  1 settings made for volume
set atom 261 mass 476.14569865649536950513720512390137
  1 settings made for mass
set atom 262 volume 0.52280394734048707405804634618107
  1 settings made for volume
set atom 262 mass 470.52355260643838619216694496572018
  1 settings made for mass
set atom 263 volume 0.52210300700455869460370195156429
  1 settings made for volume
set atom 263 mass 469.89270630410283047240227460861206
  1 settings made for mass
set atom 264 volume 0.52575325058503796782360950601287
  1 settings made for volume
set atom 264 mass 473.17792552653418169938959181308746
  1 settings made for mass
set atom 265 volume 0.52187381698352619530112406209810
  1 settings made for volume
set atom 265 mass 469.68643528517355889562168158590794
  1 settings made for mass
set atom 266 volume 0.52435855143751053386580451842747
  1 settings made for volume
set atom 266 mass 471.92269629375948625238379463553429
  1 settings made for mass
set atom 267 volume 0.52336960272378363345779916926404
  1 settings made for volume
set atom 267 mass 471.03264245140525190436164848506451
  1 settings made for mass
set atom 268 volume 0.52275871274791774201418093070970
  1 settings made for volume
set atom 268 mass 470.48284147312597269774414598941803
  1 settings made for mass
set atom 269 volume 0.52564986890191711665920593077317
  1 settings made for volume
set atom 269 mass 473.08488201172542630956741049885750
  1 settings made for mass
set atom 270 volume 0.52077149245663423293706273398129
  1 settings made for volume
set atom 270 mass 468.69434321097082829510327428579330
  1 settings made for mass
set atom 271 volume 0.52759370731025168055339236161672
  1 settings made for volume
set atom 271 mass 474.83433657922648762905737385153770
  1 settings made for mass
set atom 272 volume 0.52498877970160551242884139355738
  1 settings made for volume
set atom 272 mass 472.48990173144494519874569959938526
  1 settings made for mass
set atom 273 volume 0.52020511432001148577342064527329
  1 settings made for volume
set atom 273 mass 468.18460288801031765615334734320641
  1 settings made for mass
set atom 274 volume 0.52089909776433906962722630851204
  1 settings made for volume
set atom 274 mass 468.80918798790514756547054275870323
  1 settings made for mass
set atom 275 volume 0.52218472037945795616309396791621
  1 settings made for volume
set atom 275 mass 469.96624834151214145094854757189751
  1 settings made for mass
set atom 276 volume 0.52467648344511241820242730682367
  1 settings made for volume
set atom 276 mass 472.20883510060116350359749048948288
  1 settings made for mass
set atom 277 volume 0.52752223580924417767334944073809
  1 settings made for volume
set atom 277 mass 474.77001222831978566318866796791553
  1 settings made for mass
set atom 278 volume 0.52831879537183046302573075081455
  1 settings made for volume
set atom 278 mass 475.48691583464739096598350442945957
  1 settings made for mass
set atom 279 volume 0.52564086687509103956728040429880
  1 settings made for volume
set atom 279 mass 473.07678018758196003545890562236309
  1 settings made for mass
set atom 280 volume 0.52699753194535436939816008816706
  1 settings made for volume
set atom 280 mass 474.29777875081890670116990804672241
  1 settings made for mass
set atom 281 volume 0.51923214615362378587803959817393
  1 settings made for volume
set atom 281 mass 467.30893153826139041484566405415535
  1 settings made for mass
set atom 282 volume 0.52536879048377527201552084079594
  1 settings made for volume
set atom 282 mass 472.83191143539772838266799226403236
  1 settings made for mass
set atom 283 volume 0.52550634198311751976717687284690
  1 settings made for volume
set atom 283 mass 472.95570778480578155722469091415405
  1 settings made for mass
set atom 284 volume 0.51802646181022005134053642905201
  1 settings made for volume
set atom 284 mass 466.22381562919804309785831719636917
  1 settings made for mass
set atom 285 volume 0.52250439594152375821778377940063
  1 settings made for volume
set atom 285 mass 470.25395634737139971548458561301231
  1 settings made for mass
set atom 286 volume 0.52470696247400516742942500059144
  1 settings made for volume
set atom 286 mass 472.23626622660464136060909368097782
  1 settings made for mass
set atom 287 volume 0.52385054456013513402012904407457
  1 settings made for volume
set atom 287 mass 471.46549010412161351268878206610680
  1 settings made for mass
set atom 288 volume 0.52396569274987414566169263707707
  1 settings made for volume
set atom 288 mass 471.56912347488673731277231127023697
  1 settings made for mass
set atom 289 volume 0.52017676956804070886875024370966
  1 settings made for volume
set atom 289 mass 468.15909261123664464321336708962917
  1 settings made for mass
set atom 290 volume 0.51883938772788573690064595211879
  1 settings made for volume
set atom 290 mass 466.95544895509715388470795005559921
  1 settings made for mass
set atom 291 volume 0.52403790244298142919632255143370
  1 settings made for volume
set atom 291 mass 471.63411219868328316806582733988762
  1 settings made for mass
set atom 292 volume 0.52310192631234031512832416410674
  1 settings made for volume
set atom 292 mass 470.79173368110627961868885904550552
  1 settings made for mass
set atom 293 volume 0.52542961844843572016827693005325
  1 settings made for volume
set atom 293 mass 472.88665660359214371055713854730129
  1 settings made for mass
set atom 294 volume 0.52709514486750075334953180572484
  1 settings made for volume
set atom 294 mass 474.38563038075068334364914335310459
  1 settings made for mass
set atom 295 volume 0.52289359160238113588548003463075
  1 settings made for volume
set atom 295 mass 470.60423244214302940235938876867294
  1 settings made for mass
set atom 296 volume 0.52070986750932868325492108851904
  1 settings made for volume
set atom 296 mass 468.63888075839582825210527516901493
  1 settings made for mass
set atom 297 volume 0.52727462309011463581498446728801
  1 settings made for volume
set atom 297 mass 474.54716078110317312166444025933743
  1 settings made for mass
set atom 298 volume 0.52753880507162731472448058411828
  1 settings made for volume
set atom 298 mass 474.78492456446457481433753855526447
  1 settings made for mass
set atom 299 volume 0.52295042093368016011822874133941
  1 settings made for volume
set atom 299 mass 470.65537884031215298819006420671940
  1 settings made for mass
set atom 300 volume 0.52456670313970577002038453429122
  1 settings made for volume
set atom 300 mass 472.11003282573517481068847700953484
  1 settings made for mass
set atom 301 volume 0.52457818811688994298236821123282
  1 settings made for volume
set atom 301 mass 472.12036930520093847007956355810165
  1 settings made for mass
set atom 302 volume 0.52496732558675895941036060321494
  1 settings made for volume
set atom 302 mass 472.47059302808304437348851934075356
  1 settings made for mass
set atom 303 volume 0.51867814116982358108032258314779
  1 settings made for volume
set atom 303 mass 466.81032705284121675504138693213463
  1 settings made for mass
set atom 304 volume 0.52658723468300738801417537615635
  1 settings made for volume
set atom 304 mass 473.92851121470664566004415974020958
  1 settings made for mass
set atom 305 volume 0.52239902817425742931334298191359
  1 settings made for volume
set atom 305 mass 470.15912535683168016475974582135677
  1 settings made for mass
set atom 306 volume 0.52620943155901678256469722327893
  1 settings made for volume
set atom 306 mass 473.58848840311509320599725469946861
  1 settings made for mass
set atom 307 volume 0.52125443824645623092095547690406
  1 settings made for volume
set atom 307 mass 469.12899442181060294387862086296082
  1 settings made for mass
set atom 308 volume 0.52601974425518416289548895292683
  1 settings made for volume
set atom 308 mass 473.41776982966575815225951373577118
  1 settings made for mass
set atom 309 volume 0.52345867137737500662808542983839
  1 settings made for volume
set atom 309 mass 471.11280423963751218252582475543022
  1 settings made for mass
set atom 310 volume 0.52304949459596139504924394714180
  1 settings made for volume
set atom 310 mass 470.74454513636527508424478583037853
  1 settings made for mass
set atom 311 volume 0.52510517161723435641818014119053
  1 settings made for volume
set atom 311 mass 472.59465445551091988818370737135410
  1 settings made for mass
set atom 312 volume 0.52298700346285997841988546497305
  1 settings made for volume
set atom 312 mass 470.68830311657399079194874502718449
  1 settings made for mass
set atom 313 volume 0.52204055318229247717454200028442
  1 settings made for volume
set atom 313 mass 469.83649786406323300980147905647755
  1 settings made for mass
set atom 314 volume 0.52725532862744062256865618110169
  1 settings made for volume
set atom 314 mass 474.52979576469658695714315399527550
  1 settings made for mass
set atom 315 volume 0.52326141221882516152419384525274
  1 settings made for volume
set atom 315 mass 470.93527099694262005868949927389622
  1 settings made for mass
set atom 316 volume 0.52549905191157497696963218913879
  1 settings made for volume
set atom 316 mass 472.94914672041750236530788242816925
  1 settings made for mass
set atom 317 volume 0.52711896901141108706667637306964
  1 settings made for volume
set atom 317 mass 474.40707211026995082647772505879402
  1 settings made for mass
set atom 318 volume 0.52630775529562245917958307472873
  1 settings made for volume
set atom 318 mass 473.67697976606018528400454670190811
  1 settings made for mass
set atom 319 volume 0.52193413091891782684683676052373
  1 settings made for volume
set atom 319 mass 469.74071782702606014936463907361031
  1 settings made for mass
set atom 320 volume 0.52666995996523890966045655659400
  1 settings made for volume
set atom 320 mass 474.00296396871499382541514933109283
  1 settings made for mass
set atom 321 volume 0.52718122212795082148772962682415
  1 settings made for volume
set atom 321 mass 474.46309991515573756259982474148273
  1 settings made for mass
set atom 322 volume 0.51986045292060101274955741246231
  1 settings made for volume
set atom 322 mass 467.87440762854089371103327721357346
  1 settings made for mass
set atom 323 volume 0.51654953128444336396540847999859
  1 settings made for volume
set atom 323 mass 464.89457815599899959124741144478321
  1 settings made for mass
set atom 324 volume 0.52747381191877551476210328473826
  1 settings made for volume
set atom 324 mass 474.72643072689794507823535241186619
  1 settings made for mass
set atom 325 volume 0.52159201275087119231699261945323
  1 settings made for volume
set atom 325 mass 469.43281147578409218112938106060028
  1 settings made for mass
set atom 326 volume 0.53123001126723723430700374592561
  1 settings made for volume
set atom 326 mass 478.10701014051352331080124713480473
  1 settings made for mass
set atom 327 volume 0.52097309287139992317605674543302
  1 settings made for volume
set atom 327 mass 468.87578358425992064439924433827400
  1 settings made for mass
set atom 328 volume 0.52326333567426597248584130284144
  1 settings made for volume
set atom 328 mass 470.93700210683937257272191345691681
  1 settings made for mass
set atom 329 volume 0.52823146144024735182398444521823
  1 settings made for volume
set atom 329 mass 475.40831529622261086842627264559269
  1 settings made for mass
set atom 330 volume 0.52238429121078577832548717196914
  1 settings made for volume
set atom 330 mass 470.14586208970717962074559181928635
  1 settings made for mass
set atom 331 volume 0.51940346348725618952357763191685
  1 settings made for volume
set atom 331 mass 467.46311713853054925493779592216015
  1 settings made for mass
set atom 332 volume 0.52190118481476110989802918993519
  1 settings made for volume
set atom 332 mass 469.71106633328497537149814888834953
  1 settings made for mass
set atom 333 volume 0.52163289123972023109132578611025
  1 settings made for volume
set atom 333 mass 469.46960211574821641988819465041161
  1 settings made for mass
set atom 334 volume 0.52527052122721695770479755083215
  1 settings made for volume
set atom 334 mass 472.74346910449526149022858589887619
  1 settings made for mass
set atom 335 volume 0.52332213336867539066332710717688
  1 settings made for volume
set atom 335 mass 470.98992003180785559379728510975838
  1 settings made for mass
set atom 336 volume 0.52892336729892808211417332131532
  1 settings made for volume
set atom 336 mass 476.03103056903529477494885213673115
  1 settings made for mass
set atom 337 volume 0.52292421088854845745430566239520
  1 settings made for volume
set atom 337 mass 470.63178979969359261303907260298729
  1 settings made for mass
set atom 338 volume 0.52486923238289906468168055653223
  1 settings made for volume
set atom 338 mass 472.38230914460916665120748803019524
  1 settings made for mass
set atom 339 volume 0.51999087918078090719831152455299
  1 settings made for volume
set atom 339 mass 467.99179126270280448807170614600182
  1 settings made for mass
set atom 340 volume 0.52450260624358724381721685858793
  1 settings made for volume
set atom 340 mass 472.05234561922850389237282797694206
  1 settings made for mass
set atom 341 volume 0.52399884177640432270095516287256
  1 settings made for volume
set atom 341 mass 471.59895759876388865450280718505383
  1 settings made for mass
set atom 342 volume 0.52184586426113432899853705748683
  1 settings made for volume
set atom 342 mass 469.66127783502088277600705623626709
  1 settings made for mass
set atom 343 volume 0.52172244742951501272898440220160
  1 settings made for volume
set atom 343 mass 469.55020268656352300240541808307171
  1 settings made for mass
set atom 344 volume 0.52683360651294597332139346690383
  1 settings made for volume
set atom 344 mass 474.15024586165139908189303241670132
  1 settings made for mass
set atom 345 volume 0.51998737937144079435114463194623
  1 settings made for volume
set atom 345 mass 467.98864143429671003104886040091515
  1 settings made for mass
set atom 346 volume 0.52219240242480124969404187140753
  1 settings made for volume
set atom 346 mass 469.97316218232111850738874636590481
  1 settings made for mass
set atom 347 volume 0.52307114310149604996524885791587
  1 settings made for volume
set atom 347 mass 470.76402879134644763325923122465611
  1 settings made for mass
set atom 348 volume 0.52627425297615459953703975770622
  1 settings made for volume
set atom 348 mass 473.64682767853912537248106673359871
  1 settings made for mass
set atom 349 volume 0.52575533434495558271493109714356
  1 settings made for volume
set atom 349 mass 473.17980091046001689392141997814178
  1 settings made for mass
set atom 350 volume 0.52292494562585523087960837074206
  1 settings made for volume
set atom 350 mass 470.63245106326968425491941161453724
  1 settings made for mass
set atom 351 volume 0.52683401137116070422905522718793
  1 settings made for volume
set atom 351 mass 474.15061023404462048347340896725655
  1 settings made for mass
set atom 352 volume 0.52450186528528008889082911991864
  1 settings made for volume
set atom 352 mass 472.05167875675209643304697237908840
  1 settings made for mass
set atom 353 volume 0.52299135160276033484905156001332
  1 settings made for volume
set atom 353 mass 470.69221644248432312451768666505814
  1 settings made for mass
set atom 354 volume 0.52327035366555130213583879594808
  1 settings made for volume
set atom 354 mass 470.94331829899618924173410050570965
  1 settings made for mass
set atom 355 volume 0.52010563446696289613413455299451
  1 settings made for volume
set atom 355 mass 468.09507102026663005744921974837780
  1 settings made for mass
set atom 356 volume 0.52176095363159280537956874468364
  1 settings made for volume
set atom 356 mass 469.58485826843354971060762181878090
  1 settings made for mass
set atom 357 volume 0.52315438991466256535289858220494
  1 settings made for volume
set atom 357 mass 470.83895092319630748534109443426132
  1 settings made for mass
set atom 358 volume 0.52577887347291407671434626536211
  1 settings made for volume
set atom 358 mass 473.20098612562264861480798572301865
  1 settings made for mass
set atom 359 volume 0.52292190957319861777108371825307
  1 settings made for volume
set atom 359 mass 470.62971861587874400356668047606945
  1 settings made for mass
set atom 360 volume 0.52380036960562748049596848431975
  1 settings made for volume
set atom 360 mass 471.42033264506471823551692068576813
  1 settings made for mass
set atom 361 volume 0.52018828291823893117395982699236
  1 settings made for volume
set atom 361 mass 468.16945462641501762846019119024277
  1 settings made for mass
set atom 362 volume 0.52722277631478364767758648667950
  1 settings made for volume
set atom 362 mass 474.50049868330529534432571381330490
  1 settings made for mass
set atom 363 volume 0.52177758869798196439404591728817
  1 settings made for volume
set atom 363 mass 469.59982982818377195144421420991421
  1 settings made for mass
set atom 364 volume 0.52509906534179040527021697926102
  1 settings made for volume
set atom 364 mass 472.58915880761134076237794943153858
  1 settings made for mass
set atom 365 volume 0.52019317926791186490476093240432
  1 settings made for volume
set atom 365 mass 468.17386134112069839829928241670132
  1 settings made for mass
set atom 366 volume 0.51798723223722376030053737849812
  1 settings made for volume
set atom 366 mass 466.18850901350140247814124450087547
  1 settings made for mass
set atom 367 volume 0.52651912301967884744158254761714
  1 settings made for volume
set atom 367 mass 473.86721071771097513192216865718365
  1 settings made for mass
set atom 368 volume 0.52669892244280613891049824815127
  1 settings made for volume
set atom 368 mass 474.02903019852550414725556038320065
  1 settings made for mass
set atom 369 volume 0.52480497510630941260245663215755
  1 settings made for volume
set atom 369 mass 472.32447759567844514094758778810501
  1 settings made for mass
set atom 370 volume 0.52291772436992944861344767559785
  1 settings made for volume
set atom 370 mass 470.62595193293651618660078383982182
  1 settings made for mass
set atom 371 volume 0.52798613275861561167090485469089
  1 settings made for volume
set atom 371 mass 475.18751948275405538879567757248878
  1 settings made for mass
set atom 372 volume 0.51869632917685115636174941755598
  1 settings made for volume
set atom 372 mass 466.82669625916605582460761070251465
  1 settings made for mass
set atom 373 volume 0.52444583908429553975594217263279
  1 settings made for volume
set atom 373 mass 472.00125517586599244168610312044621
  1 settings made for mass
set atom 374 volume 0.51810628250922996507199513871456
  1 settings made for volume
set atom 374 mass 466.29565425830696767661720514297485
  1 settings made for mass
set atom 375 volume 0.52372977869409531592737039318308
  1 settings made for volume
set atom 375 mass 471.35680082468576301835128106176853
  1 settings made for mass
set atom 376 volume 0.52397254226263412224540161332698
  1 settings made for volume
set atom 376 mass 471.57528803637069358956068754196167
  1 settings made for mass
set atom 377 volume 0.52117904855161123478524132224265
  1 settings made for volume
set atom 377 mass 469.06114369645013084664242342114449
  1 settings made for mass
set atom 378 volume 0.51887073027460606233773887652205
  1 settings made for volume
set atom 378 mass 466.98365724714545876850024797022343
  1 settings made for mass
set atom 379 volume 0.52173919583587857751183491927804
  1 settings made for volume
set atom 379 mass 469.56527625229074374146875925362110
  1 settings made for mass
set atom 380 volume 0.52476212639510810831211529148277
  1 settings made for volume
set atom 380 mass 472.28591375559727794097852893173695
  1 settings made for mass
set atom 381 volume 0.51840593733051920644072652066825
  1 settings made for volume
set atom 381 mass 466.56534359746729023754596710205078
  1 settings made for mass
set atom 382 volume 0.52232593361044743485166463869973
  1 settings made for volume
set atom 382 mass 470.09334024940267227066215127706528
  1 settings made for mass
set atom 383 volume 0.52348594677856341572663723127334
  1 settings made for volume
set atom 383 mass 471.13735210070706216356484219431877
  1 settings made for mass
set atom 384 volume 0.52080535360826907265163754345849
  1 settings made for volume
set atom 384 mass 468.72481824744215828104643151164055
  1 settings made for mass
set atom 385 volume 0.52266122561209138464022316838964
  1 settings made for volume
set atom 385 mass 470.39510305088225550207425840198994
  1 settings made for mass
set atom 386 volume 0.53039572991498362686257905806997
  1 settings made for volume
set atom 386 mass 477.35615692348528682487085461616516
  1 settings made for mass
set atom 387 volume 0.52963013235965472613742122121039
  1 settings made for volume
set atom 387 mass 476.66711912368924686234095133841038
  1 settings made for mass
set atom 388 volume 0.52829568882238264748707479157019
  1 settings made for volume
set atom 388 mass 475.46611994014438096201047301292419
  1 settings made for mass
set atom 389 volume 0.51996529585632889070012652155128
  1 settings made for volume
set atom 389 mass 467.96876627069599408059730194509029
  1 settings made for mass
set atom 390 volume 0.52459875448474824199962540660636
  1 settings made for volume
set atom 390 mass 472.13887903627340847378945909440517
  1 settings made for mass
set atom 391 volume 0.51949371256847731714856308826711
  1 settings made for volume
set atom 391 mass 467.54434131162958010463626123964787
  1 settings made for mass
set atom 392 volume 0.52216524235907035844661550072487
  1 settings made for volume
set atom 392 mass 469.94871812316330306202871724963188
  1 settings made for mass
set atom 393 volume 0.52457137033630840683429141790839
  1 settings made for volume
set atom 393 mass 472.11423330267757592082489281892776
  1 settings made for mass
set atom 394 volume 0.52121976629729693808457113846089
  1 settings made for volume
set atom 394 mass 469.09778966756726958919898606836796
  1 settings made for mass
set atom 395 volume 0.52336465862885073185850615118397
  1 settings made for volume
set atom 395 mass 471.02819276596568442982970736920834
  1 settings made for mass
set atom 396 volume 0.52241092709589020959271010724478
  1 settings made for volume
set atom 396 mass 470.16983438630120417656144127249718
  1 settings made for mass
set atom 397 volume 0.52038745827326504667098561185412
  1 settings made for volume
set atom 397 mass 468.34871244593853134574601426720619
  1 settings made for mass
set atom 398 volume 0.51853923836298554395085602664039
  1 settings made for volume
set atom 398 mass 466.68531452668696601904230192303658
  1 settings made for mass
set atom 399 volume 0.52083484764594645266555517082452
  1 settings made for volume
set atom 399 mass 468.75136288135178119773627258837223
  1 settings made for mass
set atom 400 volume 0.52347293012990614435864245024277
  1 settings made for volume
set atom 400 mass 471.12563711691552725824294611811638
  1 settings made for mass
set atom 401 volume 0.52307886844888429322963929735124
  1 settings made for volume
set atom 401 mass 470.77098160399589232838479802012444
  1 settings made for mass
set atom 402 volume 0.53023202247293799160843263962306
  1 settings made for volume
set atom 402 mass 477.20882022564421731658512726426125
  1 settings made for mass
set atom 403 volume 0.52199599015564379644871451091603
  1 settings made for volume
set atom 403 mass 469.79639114007943589967908337712288
  1 settings made for mass
set atom 404 volume 0.51980516772445395368151821458014
  1 settings made for volume
set atom 404 mass 467.82465095200853966161957941949368
  1 settings made for mass
set atom 405 volume 0.51774645764776972001186550187413
  1 settings made for volume
set atom 405 mass 465.97181188299276755060418508946896
  1 settings made for mass
set atom 406 volume 0.52093394985709762234904474098585
  1 settings made for volume
set atom 406 mass 468.84055487138783746559056453406811
  1 settings made for mass
set atom 407 volume 0.52458294460327270503086083408562
  1 settings made for volume
set atom 407 mass 472.12465014294542697825818322598934
  1 settings made for mass
set atom 408 volume 0.51933105348249963828521913455916
  1 settings made for volume
set atom 408 mass 467.39794813424970243431744165718555
  1 settings made for mass
set atom 409 volume 0.52321584524429243234777686666348
  1 settings made for volume
set atom 409 mass 470.89426071986321176154888235032558
  1 settings made for mass
set atom 410 volume 0.53020259137848257946501462356537
  1 settings made for volume
set atom 410 mass 477.18233224063430952810449525713921
  1 settings made for mass
set atom 411 volume 0.52270886755714163207642286579357
  1 settings made for volume
set atom 411 mass 470.43798080142744311160640791058540
  1 settings made for mass
set atom 412 volume 0.52260795818552019387226437174832
  1 settings made for volume
set atom 412 mass 470.34716236696817759366240352392197
  1 settings made for mass
set atom 413 volume 0.52418803760995413831835776363732
  1 settings made for volume
set atom 413 mass 471.76923384895872004562988877296448
  1 settings made for mass
set atom 414 volume 0.52218381248494960544803689117543
  1 settings made for volume
set atom 414 mass 469.96543123645466266680159606039524
  1 settings made for mass
set atom 415 volume 0.52831911308614720734766478926758
  1 settings made for volume
set atom 415 mass 475.48720177753250482055591419339180
  1 settings made for mass
set atom 416 volume 0.51835460906193853158896445165738
  1 settings made for volume
set atom 416 mass 466.51914815574468775594141334295273
  1 settings made for mass
set atom 417 volume 0.52380124535579031253007542545674
  1 settings made for volume
set atom 417 mass 471.42112082021128571795998141169548
  1 settings made for mass
set atom 418 volume 0.51552871288111912217999588392559
  1 settings made for volume
set atom 418 mass 463.97584159300720330065814778208733
  1 settings made for mass
set atom 419 volume 0.52951591209326220877073865267448
  1 settings made for volume
set atom 419 mass 476.56432088393597723552375100553036
  1 settings made for mass
set atom 420 volume 0.52589819258375969379670777925639
  1 settings made for volume
set atom 420 mass 473.30837332538374084833776578307152
  1 settings made for mass
set atom 421 volume 0.52145784275432827126195434175315
  1 settings made for volume
set atom 421 mass 469.31205847889543747442075982689857
  1 settings made for mass
set atom 422 volume 0.52254986451013796244779996413854
  1 settings made for volume
set atom 422 mass 470.29487805912418707521283067762852
  1 settings made for mass
set atom 423 volume 0.52488060438169570343092118491768
  1 settings made for volume
set atom 423 mass 472.39254394352610688656568527221680
  1 settings made for mass
set atom 424 volume 0.52671423032044040191124167904491
  1 settings made for volume
set atom 424 mass 474.04280728839637504279380664229393
  1 settings made for mass
set atom 425 volume 0.51999846449214326415955156335258
  1 settings made for volume
set atom 425 mass 467.99861804292891065415460616350174
  1 settings made for mass
set atom 426 volume 0.52340771216757253636586710854317
  1 settings made for volume
set atom 426 mass 471.06694095081530804236535914242268
  1 settings made for mass
set atom 427 volume 0.52686508747585769629750984677230
  1 settings made for volume
set atom 427 mass 474.17857872827192977638333104550838
  1 settings made for mass
set atom 428 volume 0.52401083488255095765850910538575
  1 settings made for volume
set atom 428 mass 471.60975139429586988626397214829922
  1 settings made for mass
set atom 429 volume 0.52895799168439816551057219840004
  1 settings made for volume
set atom 429 mass 476.06219251595837249624310061335564
  1 settings made for mass
set atom 430 volume 0.51837189734476829539033815308358
  1 settings made for volume
set atom 430 mass 466.53470761029149116438929922878742
  1 settings made for mass
set atom 431 volume 0.52313630239364827811954228309332
  1 settings made for volume
set atom 431 mass 470.82267215428345252803410403430462
  1 settings made for mass
set atom 432 volume 0.52343749867351951898797324247425
  1 settings made for volume
set atom 432 mass 471.09374880616758218820905312895775
  1 settings made for mass
set atom 433 volume 0.52662428641705794074567847928847
  1 settings made for volume
set atom 433 mass 473.96185777535214356248616240918636
  1 settings made for mass
set atom 434 volume 0.53120049994821216809981478945701
  1 settings made for volume
set atom 434 mass 478.08044995339093929942464455962181
  1 settings made for mass
set atom 435 volume 0.51914459400895240914763917317032
  1 settings made for volume
set atom 435 mass 467.23013460805714203161187469959259
  1 settings made for mass
set atom 436 volume 0.52329560109910289167345354144345
  1 settings made for volume
set atom 436 mass 470.96604098919260650291107594966888
  1 settings made for mass
set atom 437 volume 0.52202525208356520547425816403120
  1 settings made for volume
set atom 437 mass 469.82272687520867293642368167638779
  1 settings made for mass
set atom 438 volume 0.52270716048268361930695391492918
  1 settings made for volume
set atom 438 mass 470.43644443441525027083116583526134
  1 settings made for mass
set atom 439 volume 0.52744670003972460303742764153867
  1 settings made for volume
set atom 439 mass 474.70203003575215916498564183712006
  1 settings made for mass
set atom 440 volume 0.52622582057702571578516881345422
  1 settings made for volume
set atom 440 mass 473.60323851932315619706059806048870
  1 settings made for mass
set atom 441 volume 0.52486453628356055656212220128509
  1 settings made for volume
set atom 441 mass 472.37808265520448003371711820363998
  1 settings made for mass
set atom 442 volume 0.52336181598676667636738102373783
  1 settings made for volume
set atom 442 mass 471.02563438808999762841267511248589
  1 settings made for mass
set atom 443 volume 0.52106160446249938367202503286535
  1 settings made for volume
set atom 443 mass 468.95544401624943020578939467668533
  1 settings made for mass
set atom 444 volume 0.52824440567930142087504918890772
  1 settings made for volume
set atom 444 mass 475.41996511137125480672693811357021
  1 settings made for mass
set atom 445 volume 0.52638973668538746597533872773056
  1 settings made for volume
set atom 445 mass 473.75076301684873669728403910994530
  1 settings made for mass
set atom 446 volume 0.52304793959461504115893148991745
  1 settings made for volume
set atom 446 mass 470.74314563515355303024989552795887
  1 settings made for mass
set atom 447 volume 0.52506111908536723387186384570668
  1 settings made for volume
set atom 447 mass 472.55500717683048605977091938257217
  1 settings made for mass
set atom 448 volume 0.51868688442838140062463025969919
  1 settings made for volume
set atom 448 mass 466.81819598554324102224200032651424
  1 settings made for mass
set atom 449 volume 0.52194472797454771750835789134726
  1 settings made for volume
set atom 449 mass 469.75025517709292444124002940952778
  1 settings made for mass
set atom 450 volume 0.51988814054884802118294828687795
  1 settings made for volume
set atom 450 mass 467.89932649396320130108506418764591
  1 settings made for mass
set atom 451 volume 0.52372124638705341848066154852859
  1 settings made for volume
set atom 451 mass 471.34912174834806819490040652453899
  1 settings made for mass
set atom 452 volume 0.52842989618878222213282924712985
  1 settings made for volume
set atom 452 mass 475.58690656990398792913765646517277
  1 settings made for mass
set atom 453 volume 0.51912021662910901032006449895562
  1 settings made for volume
set atom 453 mass 467.20819496619810706761199980974197
  1 settings made for mass
set atom 454 volume 0.52939337425192667385687173009501
  1 settings made for volume
set atom 454 mass 476.45403682673401135616586543619633
  1 settings made for mass
set atom 455 volume 0.52906513241950414716541217785561
  1 settings made for volume
set atom 455 mass 476.15861917755375998240197077393532
  1 settings made for mass
set atom 456 volume 0.52660068170350227134690612729173
  1 settings made for volume
set atom 456 mass 473.94061353315203177771763876080513
  1 settings made for mass
set atom 457 volume 0.51976547500284053793251359820715
  1 settings made for volume
set atom 457 mass 467.78892750255647570156725123524666
  1 settings made for mass
set atom 458 volume 0.52381654604767247107588445942383
  1 settings made for volume
set atom 458 mass 471.43489144290521153379813767969608
  1 settings made for mass
set atom 459 volume 0.52264866035350421302752010888071
  1 settings made for volume
set atom 459 mass 470.38379431815377529346733354032040
  1 settings made for mass
set atom 460 volume 0.52321165502756483700608214348904
  1 settings made for volume
set atom 460 mass 470.89048952480834486777894198894501
  1 settings made for mass
set atom 461 volume 0.52352918654918023655397973925574
  1 settings made for volume
set atom 461 mass 471.17626789426219602319179102778435
  1 settings made for mass
set atom 462 volume 0.52004577995754563968233696868992
  1 settings made for volume
set atom 462 mass 468.04120196179110280354507267475128
  1 settings made for mass
set atom 463 volume 0.52013368896854528244944049220067
  1 settings made for volume
set atom 463 mass 468.12032007169074176999856717884541
  1 settings made for mass
set atom 464 volume 0.51956975392435378324762496049516
  1 settings made for volume
set atom 464 mass 467.61277853191842268643085844814777
[...]
   17500    130.25233     2340    37087.975           50 
   17600    131.00211     2340    37504.519           50 
   17700    131.74943     2340    37346.152           50 
   17800    132.49093     2340    37314.565           50 
   17900    133.23428     2340    37380.333           50 
   18000    133.98703     2340    37772.646           50 
   18100    134.73772     2340    38027.188           50 
   18200    135.47864     2340    37701.833           50 
   18300    136.22583     2340    37429.615           50 
   18400    136.96735     2340    37178.804           50 
   18500    137.70799     2340    37205.773           50 
   18600    138.45129     2340    37035.194           50 
   18700    139.21034     2340    36805.051           50 
   18800    139.95867     2340    36805.278           50 
   18900    140.70086     2340    36482.653           50 
   19000    141.44834     2340    36107.653           50 
   19100    142.19704     2339    35771.676           50 
   19200    142.94328     2339    35691.741           50 
   19300    143.68734     2339    35563.136           50 
   19400    144.43615     2339     35254.65           50 
   19500     145.1803     2339    35357.946           50 
   19600    145.92324     2339    35349.816           50 
   19700    146.66737     2339    35306.524           50 
   19800    147.40803     2339    35239.947           50 
   19900    148.15245     2339     35097.81           50 
   20000    148.89451     2339    35053.323           50 
   20100    149.64488     2339    35277.842           50 
   20200    150.39494     2339    35605.218           50 
   20300    151.13725     2339    35805.146           50 
   20400    151.87729     2339    35933.364           50 
   20500    152.62245     2339    35845.593           50 
   20600    153.36502     2339    35454.905           50 
   20700     154.1104     2339    35020.804           50 
   20800    154.85178     2339    34864.729           50 
   20900    155.59659     2339    34420.906           50 
   21000    156.34042     2339    34012.027           50 
   21100    157.07833     2339    33643.629           50 
   21200    157.81692     2339    33336.599           50 
   21300    158.56478     2339    33292.699           50 
   21400     159.3168     2339    33030.318           50 
   21500    160.07539     2339    32726.069           50 
   21600    160.81934     2339    32414.799           50 
   21700    161.56119     2339     32398.38           50 
   21800     162.3076     2339    32210.378           50 
   21900     163.0512     2339    31842.057           50 
   22000    163.80097     2339    31609.417           50 
   22100    164.54509     2338    31171.033           50 
   22200     165.2867     2338    30893.954           50 
   22300     166.0316     2338    30487.081           50 
   22400    166.77233     2338    30101.729           50 
   22500    167.51289     2338    30062.819           50 
   22600    168.25431     2338    30078.284           50 
   22700    168.99604     2338    29937.018           50 
   22800    169.74462     2338    29784.684           50 
   22900    170.48642     2338    29541.732           50 
   23000    171.22653     2338    29512.813           50 
   23100    171.98347     2338     29536.76           50 
   23200    172.72344     2338    29495.422           50 
   23300    173.47178     2337    29244.673           50 
   23400     174.2124     2337    29009.321           50 
   23500    174.96132     2337    28924.659           50 
   23600    175.70347     2337    28798.213           50 
   23700    176.45548     2337    28738.807           50 
   23800    177.20124     2337    28863.841           50 
   23900    177.94305     2337    28936.221           50 
   24000    178.69184     2337    28911.687           50 
   24100    179.43261     2337    28902.444           50 
   24200     180.1781     2337    28960.932           50 
   24300    180.92649     2337    28916.439           50 
   24400    181.67468     2337    28959.352           50 
   24500    182.41677     2337    29049.302           50 
   24600    183.15732     2337    29147.801           50 
   24700    183.90119     2337    29010.834           50 
   24800    184.64519     2337    28536.635           50 
   24900    185.39903     2337    28221.107           50 
   25000    186.14385     2337    27897.544           50 
   25100    186.88348     2337    27914.568           50 
   25200    187.62373     2337    27825.832           50 
   25300    188.36747     2337    27512.264           50 
   25400    189.11068     2337    28035.739           50 
   25500    189.86763     2337    28378.995           50 
   25600    190.61998     2337    28851.098           50 
   25700    191.36283     2337    29050.918           50 
   25800    192.11488     2337    28945.412           50 
   25900    192.85885     2337    29199.765           50 
   26000    193.59754     2337    29424.603           50 
   26100    194.34884     2337    29348.988           50 
   26200    195.09244     2337    29543.039           50 
   26300    195.84564     2337    29915.402           50 
   26400    196.58912     2337     30083.97           50 
   26500    197.33343     2337    30170.637           50 
   26600    198.08018     2337    30363.821           50 
   26700    198.82956     2337    30100.485           50 
   26800    199.56671     2337    29971.108           50 
   26900    200.31925     2337    29903.265           50 
   27000    201.07159     2337    29803.836           50 
   27100    201.82721     2337    29873.728           50 
   27200    202.57716     2337    30016.779           50 
   27300    203.31841     2337    30307.286           50 
   27400    204.06072     2337    30385.293           50 
   27500    204.80254     2337    30682.904           50 
   27600    205.54364     2337    31016.893           50 
   27700    206.29346     2337    31193.932           50 
   27800    207.04366     2337    31163.321           50 
   27900    207.79316     2337     31385.05           50 
   28000    208.53982     2337    31421.757           50 
   28100    209.28817     2337    31198.097           50 
   28200    210.02444     2337    31409.098           50 
   28300    210.77613     2337    31453.107           50 
   28400    211.51952     2337    31321.828           50 
   28500    212.26395     2337     31427.21           50 
   28600    213.01143     2337    31620.056           50 
   28700    213.76388     2337    31878.664           50 
   28800    214.50662     2337    31853.973           50 
   28900    215.26276     2337    32145.217           50 
   29000    216.00269     2337     32171.56           50 
   29100    216.74944     2337     32252.15           50 
   29200    217.49812     2337    31911.084           50 
   29300    218.24507     2337    31573.964           50 
   29400    218.98282     2337    31411.025           50 
   29500    219.74315     2337    31423.156           50 
   29600    220.49607     2337    31294.488           50 
   29700     221.2392     2337    31303.303           50 
   29800    221.98119     2336    31254.086           50 
   29900    222.72883     2336    31267.428           50 
   30000    223.48103     2336    31149.335           50 
   30100    224.22607     2336    30770.401           50 
   30200    224.96299     2336    30754.901           50 
   30300    225.70573     2336    30641.522           50 
   30400    226.45195     2336    30646.992           50 
   30500    227.19604     2336    30260.413           50 
   30600     227.9379     2336    29911.562           50 
   30700    228.68681     2336    29781.118           50 
   30800    229.43448     2336    29712.209           50 
   30900    230.18001     2336    29385.616           50 
   31000     230.9257     2336    29503.446           50 
   31100    231.67299     2336    29793.135           50 
   31200    232.41717     2336    29848.902           50 
   31300     233.1648     2336    29747.094           50 
   31400    233.91068     2336    29710.595           50 
   31500    234.65526     2336    29472.269           50 
   31600    235.40024     2336    29540.624           50 
   31700     236.1436     2336    29664.702           50 
   31800    236.89291     2335    30134.025           50 
   31900    237.63725     2335    30273.501           50 
   32000     238.3772     2335     30436.02           50 
   32100    239.11951     2335    30462.287           50 
   32200    239.86172     2335    30178.602           50 
   32300    240.61361     2335    30006.978           50 
   32400    241.36175     2335    29947.504           50 
   32500    242.10603     2335    29910.938           50 
   32600    242.84933     2335    29844.196           50 
   32700    243.60452     2335    29805.252           50 
   32800    244.35008     2335    29906.367           50 
   32900    245.09205     2335    29732.394           50 
   33000    245.84777     2335    29563.315           50 
   33100    246.59838     2335    28984.143           50 
   33200    247.34569     2335    28519.948           50 
   33300    248.09028     2335    27948.546           50 
   33400    248.83527     2335    27760.611           50 
   33500    249.59052     2335    27326.388           50 
   33600     250.3387     2335    26800.164           50 
   33700    251.08349     2335    26270.187           50 
   33800     251.8271     2335    25833.787           50 
   33900    252.57373     2335    25570.129           50 
   34000    253.31283     2335    25354.933           50 
   34100    254.05467     2335     25316.58           50 
   34200    254.79367     2335    24834.151           50 
   34300    255.54331     2335    24439.928           50 
   34400    256.29356     2335     23996.71           50 
   34500    257.03484     2335    23712.571           50 
   34600    257.78191     2335    23565.816           50 
   34700    258.52668     2335    23615.673           50 
   34800    259.26906     2335    23915.341           50 
   34900    260.03048     2335    24222.436           50 
   35000    260.77205     2335    24286.581           50 
   35100    261.51842     2335    24420.841           50 
   35200    262.26568     2335    24503.332           50 
   35300    263.02269     2335     24792.56           50 
   35400    263.77557     2335     24882.12           50 
   35500    264.51986     2335    24155.259           50 
   35600    265.27085     2335    23756.663           50 
   35700    266.01561     2335    23483.681           50 
   35800    266.76235     2335    23153.586           50 
   35900    267.51033     2335    23250.102           50 
   36000    268.25491     2335    22970.479           50 
   36100     268.9971     2335      22426.8           50 
   36200    269.73666     2335    21996.487           50 
   36300    270.49002     2335    21697.006           50 
   36400    271.24102     2335    21171.076           50 
   36500    271.98494     2335    20700.238           50 
   36600      272.732     2335    20658.332           50 
   36700    273.47525     2335    20891.137           50 
   36800    274.22194     2335    20741.204           50 
   36900    274.96232     2335    20623.769           50 
   37000    275.71405     2335    20665.106           50 
   37100    276.45886     2335    20647.959           50 
   37200    277.21124     2335    20871.018           50 
   37300    277.95585     2335    20828.755           50 
   37400    278.70107     2335    20562.785           50 
   37500    279.46354     2335    20513.763           50 
   37600    280.20853     2335    20487.601           50 
   37700    280.95895     2335    20562.677           50 
   37800    281.70421     2335    20871.953           50 
   37900    282.44718     2335     20864.67           50 
   38000    283.19526     2335    21009.394           50 
   38100    283.93694     2335    21082.381           50 
   38200    284.68485     2335    21374.574           50 
   38300     285.4284     2335    21623.719           50 
   38400    286.17553     2335    21349.487           50 
   38500     286.9211     2335    21307.539           50 
   38600    287.66725     2335    21307.721           50 
   38700    288.42199     2335    21360.389           50 
   38800    289.16666     2335    21229.647           50 
   38900    289.91778     2335      21240.8           50 
   39000    290.66567     2335    21166.841           50 
   39100    291.41277     2335    21023.995           50 
   39200    292.16615     2335    21390.953           50 
   39300     292.9136     2335    21583.892           50 
   39400    293.66299     2335    21872.317           50 
   39500    294.41196     2335    21996.223           50 
   39600     295.1552     2335    22229.204           50 
   39700     295.8984     2335    22192.376           50 
   39800    296.64386     2335    22210.455           50 
   39900    297.38515     2335    22284.092           50 
   40000    298.13838     2335    22971.846           50 
   40100    298.88602     2335    23310.039           50 
   40200    299.68583     2335    23315.252           50 
   40300    300.47798     2335    23475.955           50 
   40400    301.25451     2335    23651.686           50 
   40500    302.06175     2335    23803.882           50 
   40600    302.86096     2335    23925.925           50 
   40700    303.63126     2335    24004.241           50 
   40800    304.40476     2335    24098.898           50 
   40900    305.17845     2335    24318.264           50 
   41000    305.95022     2335    24466.428           50 
   41100    306.72153     2335    24827.813           50 
   41200    307.48965     2335    25311.308           50 
   41300    308.25689     2335    25758.426           50 
   41400    309.02688     2335    25910.168           50 
   41500    309.82009     2335    26515.124           50 
   41600    310.59339     2335    26475.468           50 
   41700    311.37456     2335    26482.661           50 
   41800    312.14345     2335     26441.97           50 
   41900    312.91692     2335    26633.036           50 
   42000    313.68428     2335    26877.812           50 
   42100    314.45349     2335    26916.672           50 
   42200    315.22367     2335    26892.642           50 
   42300    315.99301     2335    26530.939           50 
   42400    316.76609     2335    25868.636           50 
   42500     317.5371     2335    25718.376           50 
   42600    318.31028     2335    25736.857           50 
   42700    319.08343     2335    25670.794           50 
   42800    319.85435     2335    25488.514           50 
   42900    320.63552     2335    25300.957           50 
   43000    321.40615     2335    25452.476           50 
   43100    322.19396     2335    25417.444           50 
   43200    322.96825     2335     24903.42           50 
   43300    323.74906     2335    24608.201           50 
   43400    324.52229     2335     24247.24           50 
   43500    325.29509     2335     23999.98           50 
   43600    326.06531     2335    23410.687           50 
   43700    326.84581     2335    22978.638           50 
   43800    327.61962     2335    22812.002           50 
   43900    328.39022     2335    22853.238           50 
   44000    329.16898     2335    22484.166           50 
   44100    329.94083     2335    22323.783           50 
   44200    330.71945     2335    22450.119           50 
   44300    331.49236     2335    22234.163           50 
   44400    332.26114     2335    22010.736           50 
   44500    333.03154     2335    21813.036           50 
   44600     333.8108     2335    21695.216           50 
   44700    334.58185     2335    21270.434           50 
   44800    335.35167     2335    20998.328           50 
   44900    336.12053     2335    20962.746           50 
   45000    336.89667     2335    21193.301           50 
   45100    337.67255     2335    21406.232           50 
   45200    338.44689     2335     21134.23           50 
   45300    339.22654     2335    21012.105           50 
   45400    340.00671     2335    20933.941           50 
   45500    340.78604     2335    21040.305           50 
   45600    341.56027     2335    21175.819           50 
   45700    342.33287     2335    21148.484           50 
   45800     343.1075     2335    21226.131           50 
   45900    343.87628     2335    21214.093           50 
   46000    344.65085     2335    21083.037           50 
   46100    345.41741     2335    21000.311           50 
   46200    346.18611     2335    20839.069           50 
   46300    346.95635     2335    20997.001           50 
   46400    347.73083     2335    21286.326           50 
   46500    348.50029     2335    21268.792           50 
   46600    349.27807     2335    21340.714           50 
   46700    350.05457     2335    21339.374           50 
   46800    350.82579     2335    20845.168           50 
   46900    351.60398     2335    20888.753           50 
   47000    352.37226     2335    20557.701           50 
   47100    353.14118     2335    20479.774           50 
   47200    353.90948     2335    20685.234           50 
   47300    354.67839     2335    20957.118           50 
   47400    355.44853     2335    20722.903           50 
   47500    356.21687     2335    20512.368           50 
   47600    356.98838     2335    20240.699           50 
   47700    357.75944     2335     19792.58           50 
   47800    358.52845     2335    19674.406           50 
   47900    359.30507     2335    19516.339           50 
   48000    360.07732     2335    19106.763           50 
   48100    360.85576     2335     18953.87           50 
   48200    361.62853     2335    18852.043           50 
   48300    362.40119     2335    18867.884           50 
   48400    363.17387     2335    19013.837           50 
   48500    363.94569     2335     19068.19           50 
   48600    364.71726     2335    19176.651           50 
   48700    365.49084     2335    18817.116           50 
   48800    366.26435     2335    18548.398           50 
   48900    367.03388     2335    18394.149           50 
   49000     367.8011     2335    18071.889           50 
   49100    368.56852     2335    17573.679           50 
   49200    369.34444     2335    17243.743           50 
   49300    370.21145     2335    17189.718           50 
   49400    370.96611     2335    17042.956           50 
   49500    371.72108     2335    17180.125           50 
   49600    372.49468     2335    17381.025           50 
   49700    373.24945     2335    17714.477           50 
   49800    373.99868     2335    17838.752           50 
   49900    374.74441     2335     17639.25           50 
   50000    375.49942     2335    17506.935           50 
Loop time of 375.499 on 1 procs for 50000 steps with 2335 atoms

99.7% CPU use with 1 MPI tasks x no OpenMP threads

MPI task timing breakdown:
Section |  min time  |  avg time  |  max time  |%varavg| %total
---------------------------------------------------------------
Pair    | 18.142     | 18.142     | 18.142     |   0.0 |  4.83
Neigh   | 0.03492    | 0.03492    | 0.03492    |   0.0 |  0.01
Comm    | 0.034369   | 0.034369   | 0.034369   |   0.0 |  0.01
Output  | 13.757     | 13.757     | 13.757     |   0.0 |  3.66
Modify  | 343.11     | 343.11     | 343.11     |   0.0 | 91.37
Other   |            | 0.4217     |            |       |  0.11

Nlocal:    2335 ave 2335 max 2335 min
Histogram: 1 0 0 0 0 0 0 0 0 0
Nghost:    0 ave 0 max 0 min
Histogram: 1 0 0 0 0 0 0 0 0 0
Neighs:    18620 ave 18620 max 18620 min
Histogram: 1 0 0 0 0 0 0 0 0 0

Total # of neighbors = 18620
Ave neighs/atom = 7.9743
Neighbor list builds = 49
Dangerous builds = 0

Please see the log.cite file for references relevant to this simulation

Total wall time: 0:06:15
