atom_style  sphere
#dimension   3
units       si

###############################################
# Size, contact parameters
###############################################

variable    diam equal 1
variable    rad equal ${diam}*0.5
variable    rad equal 1*0.5

variable    kn equal 1e6
variable    damp equal 0.0
variable    coeffFric equal .3
variable    kt equal 0.5*${kn}
variable    kt equal 0.5*1000000
variable    dens equal 900
variable    minmass equal PI*${rad}^3*${dens}*4/3
variable    minmass equal PI*0.5^3*${dens}*4/3
variable    minmass equal PI*0.5^3*900*4/3
variable    gravity equal 9.810

variable    omega equal 0.5*10^(-3)
variable    lambda equal 8.0*10^5

variable    waterDensity equal 1017.0

###############################################
# Geometry-related parameters
###############################################

variable    lx equal  ${diam}*2
variable    lx equal  1*2
variable    ly equal  ${lx}
variable    ly equal  2
variable    lz equal  ${lx}
variable    lz equal  2

###############################################
# Create box
###############################################
boundary    f f p

variable    x0 equal -${lx}
variable    x0 equal -2
variable    x1 equal ${lx}
variable    x1 equal 2
variable    y0 equal -${ly}
variable    y0 equal -2
variable    y1 equal ${ly}
variable    y1 equal 2
variable    z0 equal -${lz}
variable    z0 equal -2
variable    z1 equal ${lz}
variable    z1 equal 2

region      boxreg block ${x0} ${x1} ${y0} ${y1} ${z0} ${z1} units box
region      boxreg block -2 ${x1} ${y0} ${y1} ${z0} ${z1} units box
region      boxreg block -2 2 ${y0} ${y1} ${z0} ${z1} units box
region      boxreg block -2 2 -2 ${y1} ${z0} ${z1} units box
region      boxreg block -2 2 -2 2 ${z0} ${z1} units box
region      boxreg block -2 2 -2 2 -2 ${z1} units box
region      boxreg block -2 2 -2 2 -2 2 units box
create_box  1 boxreg
Created orthogonal box = (-2 -2 -2) to (2 2 2)
  1 by 1 by 1 MPI processor grid

lattice	    sc ${rad} origin 0.5 0.5 0.5
lattice	    sc 0.5 origin 0.5 0.5 0.5
Lattice spacing in x,y,z = 0.5 0.5 0.5
region      element block ${x0} ${x1} ${y0} ${y1} -${diam} ${diam} units box
region      element block -2 ${x1} ${y0} ${y1} -${diam} ${diam} units box
region      element block -2 2 ${y0} ${y1} -${diam} ${diam} units box
region      element block -2 2 -2 ${y1} -${diam} ${diam} units box
region      element block -2 2 -2 2 -${diam} ${diam} units box
region      element block -2 2 -2 2 -1 ${diam} units box
region      element block -2 2 -2 2 -1 1 units box

###############################################
# Create atoms
###############################################

create_atoms  1 single 0 0 -1
Created 1 atoms
  Time spent = 1.09673e-05 secs
set atom 1 diameter ${diam}
set atom 1 diameter 1
  1 settings made for diameter
set atom 1 density ${dens}
set atom 1 density 900
  1 settings made for density
set atom 1 mass ${minmass}
set atom 1 mass 471.238898038469
  1 settings made for mass
#create_atoms  1 region element
#set group all diameter ${diam}
#set group all density  ${dens}
#set group all mass     ${minmass}

###############################################
# Computes and Property/atom variables
###############################################

compute     rad all property/atom radius
variable    velocity atom sqrt(vx*vx+vy*vy+vz*vz)

###############################################
# Force Calculations
###############################################

variable h atom (z<c_rad)*((z>c_rad)*(-z)+(z<=-c_rad)*(2*c_rad))
variable Vdisp atom PI*(c_rad*v_h^2-1/3*v_h^3)
variable Fb atom ${waterDensity}*${gravity}*v_Vdisp
variable Fb atom 1017*${gravity}*v_Vdisp
variable Fb atom 1017*9.81*v_Vdisp
variable zdamp atom -vz
variable Fztot atom v_Fb+v_zdamp

###############################################
# Fixes and pair styles
###############################################
comm_style  tiled
variable    tcol equal PI/sqrt(2*${kn}/${minmass}-${damp}^2/4.0)
variable    tcol equal PI/sqrt(2*1000000/${minmass}-${damp}^2/4.0)
variable    tcol equal PI/sqrt(2*1000000/471.238898038469-${damp}^2/4.0)
variable    tcol equal PI/sqrt(2*1000000/471.238898038469-0^2/4.0)
variable    dt equal ${tcol}*0.02
variable    dt equal 0.0482231350186037*0.02
timestep    ${dt}
timestep    0.000964462700372074

pair_style	gran/hooke ${kn} ${kt} ${damp} 0 ${coeffFric} 1
pair_style	gran/hooke 1000000 ${kt} ${damp} 0 ${coeffFric} 1
pair_style	gran/hooke 1000000 500000 ${damp} 0 ${coeffFric} 1
pair_style	gran/hooke 1000000 500000 0 0 ${coeffFric} 1
pair_style	gran/hooke 1000000 500000 0 0 0.3 1
pair_coeff  * *

fix		1 all  nve/sphere
fix   2 all  gravity 9.81 vector 0 0 -1
fix   3 all  addforce 0 0 v_Fztot
fix		wx all wall/gran hooke ${kn} ${kt} ${damp} 0 ${coeffFric} 1 xplane ${x0} ${x1}
fix		wx all wall/gran hooke 1000000 ${kt} ${damp} 0 ${coeffFric} 1 xplane ${x0} ${x1}
fix		wx all wall/gran hooke 1000000 500000 ${damp} 0 ${coeffFric} 1 xplane ${x0} ${x1}
fix		wx all wall/gran hooke 1000000 500000 0 0 ${coeffFric} 1 xplane ${x0} ${x1}
fix		wx all wall/gran hooke 1000000 500000 0 0 0.3 1 xplane ${x0} ${x1}
fix		wx all wall/gran hooke 1000000 500000 0 0 0.3 1 xplane -2 ${x1}
fix		wx all wall/gran hooke 1000000 500000 0 0 0.3 1 xplane -2 2
fix		wy all wall/gran hooke ${kn} ${kt} ${damp} 0 ${coeffFric} 1 yplane ${y0} ${y1}
fix		wy all wall/gran hooke 1000000 ${kt} ${damp} 0 ${coeffFric} 1 yplane ${y0} ${y1}
fix		wy all wall/gran hooke 1000000 500000 ${damp} 0 ${coeffFric} 1 yplane ${y0} ${y1}
fix		wy all wall/gran hooke 1000000 500000 0 0 ${coeffFric} 1 yplane ${y0} ${y1}
fix		wy all wall/gran hooke 1000000 500000 0 0 0.3 1 yplane ${y0} ${y1}
fix		wy all wall/gran hooke 1000000 500000 0 0 0.3 1 yplane -2 ${y1}
fix		wy all wall/gran hooke 1000000 500000 0 0 0.3 1 yplane -2 2

###############################################
# Run settings
###############################################

variable      dumpfreq equal 1
variable      logfreq equal 100

variable      skin equal 0.3*${diam}
variable      skin equal 0.3*1
neighbor      ${skin} bin
neighbor      0.3 bin

comm_modify	  vel yes cutoff ${diam}
comm_modify	  vel yes cutoff 1

thermo_style	custom step cpu atoms ke lx
thermo_modify	flush yes lost warn
thermo        ${logfreq}
thermo        100

dump 1        all custom ${dumpfreq} ../data/DUMP/3D_trial.dump id type mass               radius x y z v_velocity
dump 1        all custom 1 ../data/DUMP/3D_trial.dump id type mass               radius x y z v_velocity

run		50000
Neighbor list info ...
  update every 1 steps, delay 10 steps, check yes
  max neighbors/atom: 2000, page size: 100000
  master list distance cutoff = 1.3
  ghost atom cutoff = 1.3
  binsize = 0.65, bins = 7 7 7
  1 neighbor lists, perpetual/occasional/extra = 1 0 0
  (1) pair gran/hooke, perpetual
      attributes: half, newton on, size
      pair build: half/size/bin/newton
      stencil: half/bin/3d/newton
      bin: standard
Per MPI rank memory allocation (min/avg/max) = 5.891 | 5.891 | 5.891 Mbytes
Step CPU Atoms KinEng Lx 
       0            0        1            0            4 
     100 0.0027229786        1            0            4 
     200 0.0054500103        1            0            4 
     300 0.0082299709        1            0            4 
     400  0.011104107        1            0            4 
     500  0.013807058        1            0            4 
     600   0.01651907        1            0            4 
     700  0.019240141        1            0            4 
     800   0.02196312        1            0            4 
     900  0.024806976        1            0            4 
    1000  0.027572155        1            0            4 
    1100  0.030323029        1            0            4 
    1200  0.033032179        1            0            4 
    1300  0.036540985        1            0            4 
    1400  0.039748192        1            0            4 
    1500  0.042694092        1            0            4 
    1600  0.045664072        1            0            4 
    1700  0.048403978        1            0            4 
    1800  0.051174164        1            0            4 
    1900  0.054126978        1            0            4 
    2000  0.057160139        1            0            4 
    2100  0.060732126        1            0            4 
    2200  0.063852072        1            0            4 
    2300   0.06656003        1            0            4 
    2400  0.069192171        1            0            4 
    2500  0.071990967        1            0            4 
    2600  0.074903965        1            0            4 
    2700  0.077664137        1            0            4 
    2800  0.080722094        1            0            4 
    2900  0.083469152        1            0            4 
    3000  0.086215973        1            0            4 
    3100  0.088889122        1            0            4 
    3200  0.091542006        1            0            4 
    3300  0.094346046        1            0            4 
    3400   0.09711504        1            0            4 
    3500   0.10014105        1            0            4 
    3600   0.10319996        1            0            4 
    3700      0.10604        1            0            4 
    3800   0.10921812        1            0            4 
    3900   0.11238503        1            0            4 
    4000    0.1154561        1            0            4 
    4100   0.11847401        1            0            4 
    4200     0.121176        1            0            4 
    4300   0.12409616        1            0            4 
    4400     0.126827        1            0            4 
    4500   0.12962604        1            0            4 
    4600    0.1325531        1            0            4 
    4700   0.13562608        1            0            4 
    4800   0.13849115        1            0            4 
    4900     0.141155        1            0            4 
    5000   0.14398718        1            0            4 
    5100     0.147259        1            0            4 
    5200   0.15021896        1            0            4 
    5300   0.15298605        1            0            4 
    5400   0.15598297        1            0            4 
    5500   0.15909004        1            0            4 
    5600   0.16191816        1            0            4 
    5700   0.16492414        1            0            4 
    5800   0.16780901        1            0            4 
    5900   0.17052817        1            0            4 
    6000   0.17322111        1            0            4 
    6100   0.17590618        1            0            4 
    6200     0.178684        1            0            4 
    6300   0.18190312        1            0            4 
    6400   0.18496418        1            0            4 
    6500   0.18803096        1            0            4 
    6600   0.19072008        1            0            4 
    6700   0.19366407        1            0            4 
    6800   0.19653106        1            0            4 
    6900   0.19941998        1            0            4 
    7000   0.20217299        1            0            4 
    7100   0.20513296        1            0            4 
    7200   0.20804405        1            0            4 
    7300   0.21089411        1            0            4 
    7400   0.21385098        1            0            4 
    7500   0.21656108        1            0            4 
    7600   0.21965098        1            0            4 
    7700   0.22277498        1            0            4 
    7800   0.22578502        1            0            4 
    7900   0.22866011        1            0            4 
    8000   0.23165703        1            0            4 
    8100   0.23457718        1            0            4 
    8200   0.23732305        1            0            4 
    8300   0.24000502        1            0            4 
    8400   0.24279618        1            0            4 
    8500   0.24581909        1            0            4 
    8600   0.24855614        1            0            4 
    8700     0.251472        1            0            4 
    8800   0.25422716        1            0            4 
    8900   0.25691009        1            0            4 
    9000   0.26009202        1            0            4 
    9100   0.26329303        1            0            4 
    9200   0.26631212        1            0            4 
    9300   0.26902008        1            0            4 
    9400   0.27173114        1            0            4 
    9500   0.27452302        1            0            4 
    9600   0.27722812        1            0            4 
    9700   0.28020501        1            0            4 
    9800   0.28343701        1            0            4 
    9900   0.28640604        1            0            4 
   10000   0.28931808        1            0            4 
   10100     0.292027        1            0            4 
   10200   0.29536009        1            0            4 
   10300   0.29827213        1            0            4 
   10400   0.30100513        1            0            4 
   10500   0.30373597        1            0            4 
   10600   0.30655599        1            0            4 
   10700   0.30928397        1            0            4 
   10800   0.31208301        1            0            4 
   10900   0.31487417        1            0            4 
   11000   0.31761718        1            0            4 
   11100   0.32036519        1            0            4 
   11200   0.32316899        1            0            4 
   11300   0.32592797        1            0            4 
   11400   0.32864904        1            0            4 
   11500   0.33134604        1            0            4 
   11600   0.33422112        1            0            4 
   11700   0.33704019        1            0            4 
   11800   0.33975315        1            0            4 
   11900   0.34246302        1            0            4 
   12000   0.34528899        1            0            4 
   12100   0.34808302        1            0            4 
   12200   0.35082912        1            0            4 
   12300   0.35355711        1            0            4 
   12400   0.35635996        1            0            4 
   12500   0.35909796        1            0            4 
   12600   0.36186504        1            0            4 
   12700   0.36460209        1            0            4 
   12800   0.36753917        1            0            4 
   12900   0.37039804        1            0            4 
   13000   0.37313914        1            0            4 
   13100   0.37592006        1            0            4 
   13200   0.37871099        1            0            4 
   13300   0.38153601        1            0            4 
   13400   0.38434601        1            0            4 
   13500   0.38712597        1            0            4 
   13600   0.38986397        1            0            4 
   13700   0.39259005        1            0            4 
   13800   0.39539409        1            0            4 
   13900   0.39813018        1            0            4 
   14000   0.40085196        1            0            4 
   14100   0.40357709        1            0            4 
   14200   0.40663004        1            0            4 
   14300   0.40945411        1            0            4 
   14400   0.41242003        1            0            4 
   14500   0.41517997        1            0            4 
   14600   0.41792417        1            0            4 
   14700    0.4206481        1            0            4 
   14800   0.42339015        1            0            4 
   14900    0.4261601        1            0            4 
   15000   0.42894602        1            0            4 
   15100   0.43167496        1            0            4 
   15200    0.4344151        1            0            4 
   15300   0.43714809        1            0            4 
   15400   0.43988514        1            0            4 
   15500   0.44283819        1            0            4 
   15600   0.44587708        1            0            4 
   15700   0.44861507        1            0            4 
   15800   0.45134616        1            0            4 
   15900   0.45410919        1            0            4 
   16000   0.45687199        1            0            4 
   16100   0.45963907        1            0            4 
   16200   0.46241713        1            0            4 
   16300   0.46520209        1            0            4 
   16400   0.46802616        1            0            4 
   16500   0.47076106        1            0            4 
   16600    0.4734931        1            0            4 
   16700   0.47623205        1            0            4 
   16800   0.47910619        1            0            4 
   16900   0.48208213        1            0            4 
   17000   0.48486519        1            0            4 
   17100    0.4876101        1            0            4 
   17200   0.49042797        1            0            4 
   17300   0.49318719        1            0            4 
   17400   0.49591112        1            0            4 
   17500   0.49867797        1            0            4 
   17600   0.50149703        1            0            4 
   17700   0.50422597        1            0            4 
   17800   0.50693512        1            0            4 
   17900   0.50987101        1            0            4 
   18000   0.51268005        1            0            4 
   18100   0.51558614        1            0            4 
   18200   0.51854706        1            0            4 
   18300   0.52151012        1            0            4 
   18400   0.52427316        1            0            4 
   18500   0.52732301        1            0            4 
   18600   0.53027797        1            0            4 
   18700   0.53300714        1            0            4 
   18800   0.53582215        1            0            4 
   18900   0.53871202        1            0            4 
   19000   0.54144406        1            0            4 
   19100   0.54420209        1            0            4 
   19200   0.54695702        1            0            4 
   19300    0.5497191        1            0            4 
   19400   0.55247903        1            0            4 
   19500   0.55548811        1            0            4 
   19600   0.55828905        1            0            4 
   19700   0.56114006        1            0            4 
   19800   0.56398416        1            0            4 
   19900   0.56668305        1            0            4 
   20000   0.56940508        1            0            4 
   20100   0.57216907        1            0            4 
   20200   0.57490706        1            0            4 
   20300   0.57763314        1            0            4 
   20400   0.58045697        1            0            4 
   20500   0.58321404        1            0            4 
   20600   0.58589697        1            0            4 
   20700   0.58862019        1            0            4 
   20800    0.5915761        1            0            4 
   20900   0.59451818        1            0            4 
   21000    0.5974381        1            0            4 
   21100   0.60016513        1            0            4 
   21200   0.60293913        1            0            4 
   21300   0.60565019        1            0            4 
   21400   0.60835719        1            0            4 
   21500   0.61108303        1            0            4 
   21600   0.61395407        1            0            4 
   21700   0.61667514        1            0            4 
   21800   0.61940503        1            0            4 
   21900   0.62221098        1            0            4 
   22000   0.62494016        1            0            4 
   22100   0.62772202        1            0            4 
   22200   0.63066602        1            0            4 
   22300   0.63345313        1            0            4 
   22400   0.63617516        1            0            4 
   22500   0.63891101        1            0            4 
   22600   0.64162111        1            0            4 
   22700   0.64446211        1            0            4 
   22800   0.64721298        1            0            4 
   22900   0.64996099        1            0            4 
   23000      0.65274        1            0            4 
   23100   0.65552998        1            0            4 
   23200   0.65825105        1            0            4 
   23300   0.66101217        1            0            4 
   23400   0.66377902        1            0            4 
   23500   0.66681218        1            0            4 
   23600   0.66956615        1            0            4 
   23700   0.67230105        1            0            4 
   23800   0.67502904        1            0            4 
   23900   0.67777896        1            0            4 
   24000   0.68057919        1            0            4 
   24100   0.68330097        1            0            4 
   24200   0.68609309        1            0            4 
   24300   0.68882012        1            0            4 
   24400   0.69153905        1            0            4 
   24500   0.69428396        1            0            4 
   24600   0.69706702        1            0            4 
   24700    0.6998651        1            0            4 
   24800   0.70294905        1            0            4 
   24900   0.70573902        1            0            4 
   25000     0.708529        1            0            4 
   25100   0.71125007        1            0            4 
   25200   0.71419311        1            0            4 
   25300   0.71702409        1            0            4 
   25400   0.71977115        1            0            4 
   25500   0.72251511        1            0            4 
   25600   0.72524714        1            0            4 
   25700   0.72803116        1            0            4 
   25800   0.73077703        1            0            4 
   25900   0.73350215        1            0            4 
   26000   0.73625517        1            0            4 
   26100   0.73912811        1            0            4 
   26200   0.74209714        1            0            4 
   26300   0.74487805        1            0            4 
   26400   0.74771309        1            0            4 
   26500   0.75044799        1            0            4 
   26600   0.75317097        1            0            4 
   26700   0.75589204        1            0            4 
   26800   0.75861597        1            0            4 
   26900   0.76138997        1            0            4 
   27000   0.76411796        1            0            4 
   27100   0.76682496        1            0            4 
   27200   0.76965618        1            0            4 
   27300   0.77237916        1            0            4 
   27400   0.77519917        1            0            4 
   27500   0.77822208        1            0            4 
   27600   0.78095198        1            0            4 
   27700   0.78397298        1            0            4 
   27800   0.78672004        1            0            4 
   27900   0.78952098        1            0            4 
   28000   0.79224801        1            0            4 
   28100    0.7949841        1            0            4 
   28200   0.79786205        1            0            4 
   28300   0.80057907        1            0            4 
   28400   0.80331707        1            0            4 
   28500   0.80603218        1            0            4 
   28600   0.80877519        1            0            4 
   28700   0.81156206        1            0            4 
   28800   0.81470704        1            0            4 
   28900     0.817487        1            0            4 
   29000   0.82023215        1            0            4 
   29100   0.82295704        1            0            4 
   29200   0.82569408        1            0            4 
   29300   0.82852602        1            0            4 
   29400   0.83133006        1            0            4 
   29500   0.83406711        1            0            4 
   29600   0.83679819        1            0            4 
   29700   0.83956099        1            0            4 
   29800   0.84228206        1            0            4 
   29900   0.84506297        1            0            4 
   30000   0.84781504        1            0            4 
   30100   0.85100603        1            0            4 
   30200   0.85379004        1            0            4 
   30300   0.85653305        1            0            4 
   30400   0.85928416        1            0            4 
   30500   0.86213517        1            0            4 
   30600   0.86491108        1            0            4 
   30700   0.86764503        1            0            4 
   30800   0.87045598        1            0            4 
   30900   0.87318301        1            0            4 
   31000   0.87592101        1            0            4 
   31100   0.87868404        1            0            4 
   31200   0.88165712        1            0            4 
   31300   0.88443518        1            0            4 
   31400   0.88758898        1            0            4 
   31500     0.890486        1            0            4 
   31600   0.89321804        1            0            4 
   31700   0.89612818        1            0            4 
   31800   0.89891505        1            0            4 
   31900   0.90173507        1            0            4 
   32000   0.90446901        1            0            4 
   32100   0.90718317        1            0            4 
   32200   0.90992498        1            0            4 
   32300   0.91268516        1            0            4 
   32400   0.91542912        1            0            4 
   32500   0.91815019        1            0            4 
   32600   0.92093301        1            0            4 
   32700   0.92372298        1            0            4 
   32800   0.92665315        1            0            4 
   32900   0.92943597        1            0            4 
   33000   0.93228006        1            0            4 
   33100   0.93501496        1            0            4 
   33200   0.93775606        1            0            4 
   33300    0.9404881        1            0            4 
   33400   0.94325709        1            0            4 
   33500   0.94596314        1            0            4 
   33600   0.94866705        1            0            4 
   33700   0.95137596        1            0            4 
   33800   0.95416808        1            0            4 
   33900    0.9568851        1            0            4 
   34000   0.95960212        1            0            4 
   34100   0.96240211        1            0            4 
   34200   0.96529698        1            0            4 
   34300   0.96803999        1            0            4 
   34400   0.97079515        1            0            4 
   34500   0.97352314        1            0            4 
   34600   0.97624803        1            0            4 
   34700   0.97920918        1            0            4 
   34800   0.98196197        1            0            4 
   34900   0.98472309        1            0            4 
   35000    0.9874661        1            0            4 
   35100   0.99019313        1            0            4 
   35200   0.99295306        1            0            4 
   35300   0.99575496        1            0            4 
   35400   0.99852419        1            0            4 
   35500    1.0013101        1            0            4 
   35600    1.0041091        1            0            4 
   35700    1.0068381        1            0            4 
   35800    1.0095601        1            0            4 
   35900    1.0123861        1            0            4 
   36000    1.0151591        1            0            4 
   36100     1.017976        1            0            4 
   36200    1.0207012        1            0            4 
   36300     1.023421        1            0            4 
   36400    1.0262282        1            0            4 
   36500    1.0290692        1            0            4 
   36600    1.0318131        1            0            4 
   36700     1.034704        1            0            4 
   36800    1.0376761        1            0            4 
   36900    1.0404482        1            0            4 
   37000     1.043169        1            0            4 
   37100     1.045954        1            0            4 
   37200    1.0487192        1            0            4 
   37300    1.0514472        1            0            4 
   37400    1.0541461        1            0            4 
   37500    1.0570691        1            0            4 
   37600    1.0597692        1            0            4 
   37700     1.062556        1            0            4 
   37800      1.06529        1            0            4 
   37900    1.0680492        1            0            4 
   38000     1.070776        1            0            4 
   38100    1.0739501        1            0            4 
   38200    1.0767641        1            0            4 
   38300     1.079551        1            0            4 
   38400     1.082314        1            0            4 
   38500    1.0850911        1            0            4 
   38600     1.087883        1            0            4 
   38700      1.09062        1            0            4 
   38800     1.093421        1            0            4 
   38900    1.0961981        1            0            4 
   39000    1.0989771        1            0            4 
   39100     1.101697        1            0            4 
   39200    1.1043901        1            0            4 
   39300     1.107084        1            0            4 
   39400     1.110064        1            0            4 
   39500    1.1129582        1            0            4 
   39600    1.1156981        1            0            4 
   39700    1.1184371        1            0            4 
   39800     1.121279        1            0            4 
   39900     1.124001        1            0            4 
   40000    1.1267211        1            0            4 
   40100     1.129513        1            0            4 
   40200    1.1322892        1            0            4 
   40300      1.13502        1            0            4 
   40400     1.137743        1            0            4 
   40500    1.1405041        1            0            4 
   40600    1.1432672        1            0            4 
   40700    1.1462681        1            0            4 
   40800     1.149173        1            0            4 
   40900    1.1520331        1            0            4 
   41000    1.1547542        1            0            4 
   41100    1.1574671        1            0            4 
   41200    1.1601791        1            0            4 
   41300     1.162997        1            0            4 
   41400    1.1657341        1            0            4 
   41500     1.168493        1            0            4 
   41600    1.1714442        1            0            4 
   41700     1.174197        1            0            4 
   41800    1.1769421        1            0            4 
   41900    1.1797411        1            0            4 
   42000    1.1826551        1            0            4 
   42100     1.185647        1            0            4 
   42200    1.1884031        1            0            4 
   42300     1.191124        1            0            4 
   42400     1.193907        1            0            4 
   42500     1.196655        1            0            4 
   42600    1.1994362        1            0            4 
   42700    1.2022111        1            0            4 
   42800    1.2049382        1            0            4 
   42900     1.207648        1            0            4 
   43000    1.2103651        1            0            4 
   43100    1.2131782        1            0            4 
   43200     1.215899        1            0            4 
   43300    1.2186022        1            0            4 
   43400    1.2213211        1            0            4 
   43500    1.2249792        1            0            4 
   43600    1.2277501        1            0            4 
   43700    1.2308161        1            0            4 
   43800     1.233639        1            0            4 
   43900     1.236392        1            0            4 
   44000     1.239248        1            0            4 
   44100    1.2420681        1            0            4 
   44200    1.2448211        1            0            4 
   44300    1.2476032        1            0            4 
   44400    1.2503421        1            0            4 
   44500    1.2532051        1            0            4 
   44600    1.2561181        1            0            4 
   44700     1.259037        1            0            4 
   44800    1.2622612        1            0            4 
   44900    1.2652011        1            0            4 
   45000    1.2679901        1            0            4 
   45100    1.2708812        1            0            4 
   45200    1.2736652        1            0            4 
   45300     1.276377        1            0            4 
   45400    1.2791522        1            0            4 
   45500    1.2818861        1            0            4 
   45600    1.2847321        1            0            4 
   45700     1.287461        1            0            4 
   45800    1.2901862        1            0            4 
   45900    1.2929242        1            0            4 
   46000     1.296006        1            0            4 
   46100     1.299036        1            0            4 
   46200     1.301929        1            0            4 
   46300    1.3047462        1            0            4 
   46400     1.307637        1            0            4 
   46500    1.3104041        1            0            4 
   46600    1.3132901        1            0            4 
   46700      1.31619        1            0            4 
   46800     1.319046        1            0            4 
   46900     1.321816        1            0            4 
   47000    1.3245802        1            0            4 
   47100    1.3275652        1            0            4 
   47200    1.3303752        1            0            4 
   47300    1.3335791        1            0            4 
   47400    1.3365102        1            0            4 
   47500    1.3393271        1            0            4 
   47600    1.3421011        1            0            4 
   47700    1.3448701        1            0            4 
   47800     1.347836        1            0            4 
   47900    1.3506081        1            0            4 
   48000     1.353523        1            0            4 
   48100    1.3562782        1            0            4 
   48200     1.359103        1            0            4 
   48300    1.3618541        1            0            4 
   48400    1.3647401        1            0            4 
   48500     1.367847        1            0            4 
   48600     1.371057        1            0            4 
   48700    1.3739071        1            0            4 
   48800    1.3767641        1            0            4 
   48900    1.3796611        1            0            4 
   49000    1.3824351        1            0            4 
   49100    1.3851581        1            0            4 
   49200    1.3878942        1            0            4 
   49300     1.390831        1            0            4 
   49400    1.3935862        1            0            4 
   49500    1.3963671        1            0            4 
   49600     1.399158        1            0            4 
   49700    1.4019082        1            0            4 
   49800    1.4048581        1            0            4 
   49900    1.4081411        1            0            4 
   50000    1.4114151        1            0            4 
Loop time of 1.41143 on 1 procs for 50000 steps with 1 atoms

89.4% CPU use with 1 MPI tasks x no OpenMP threads

MPI task timing breakdown:
Section |  min time  |  avg time  |  max time  |%varavg| %total
---------------------------------------------------------------
Pair    | 0.0048857  | 0.0048857  | 0.0048857  |   0.0 |  0.35
Neigh   | 0          | 0          | 0          |   0.0 |  0.00
Comm    | 0.011026   | 0.011026   | 0.011026   |   0.0 |  0.78
Output  | 0.56818    | 0.56818    | 0.56818    |   0.0 | 40.26
Modify  | 0.80891    | 0.80891    | 0.80891    |   0.0 | 57.31
Other   |            | 0.01842    |            |       |  1.30

Nlocal:    1 ave 1 max 1 min
Histogram: 1 0 0 0 0 0 0 0 0 0
Nghost:    0 ave 0 max 0 min
Histogram: 1 0 0 0 0 0 0 0 0 0
Neighs:    0 ave 0 max 0 min
Histogram: 1 0 0 0 0 0 0 0 0 0

Total # of neighbors = 0
Ave neighs/atom = 0
Neighbor list builds = 0
Dangerous builds = 0
Total wall time: 0:00:01
