# vtk DataFile Version 3.0
vtk output
ASCII
DATASET UNSTRUCTURED_GRID
POINTS 12 float
0 0 0  0 1 0  0 2 0  1 0 0  1 1 0  1 2 0
0 0 1  0 1 1  0 2 1  1 0 1  1 1 1  1 2 1
CELLS 40 120
2 0 1
2 0 3
2 0 6
2 1 0
2 1 2
2 1 4
2 1 7
2 2 1
2 2 5
2 2 8
2 3 0
2 3 4
2 3 9
2 4 1
2 4 3
2 4 5
2 4 10
2 5 2
2 5 4
2 5 11
2 6 0
2 6 7
2 6 9
2 7 1
2 7 6
2 7 8
2 7 10
2 8 2
2 8 7
2 8 11
2 9 3
2 9 6
2 9 10
2 10 4
2 10 7
2 10 9
2 10 11
2 11 5
2 11 8
2 11 10
CELL_TYPES 40
3
3
3
3
3
3
3
3
3
3
3
3
3
3
3
3
3
3
3
3
3
3
3
3
3
3
3
3
3
3
3
3
3
3
3
3
3
3
3
3
POINT_DATA 12
SCALARS scalars float 1
LOOKUP_TABLE default
0.0 1.0 2.0 3.0 4.0 5.0
6.0 7.0 8.0 9.0 10.0 11.0
