# vtk DataFile Version 3.0
vtk output
ASCII
DATASET UNSTRUCTURED_GRID
POINTS 16 float
0 0 0  0 1 0  1 0 0  1 1 0
0 0 1  0 1 1  1 0 1  1 1 1
0 2 0  0 3 0  1 2 0  1 3 0
0 2 1  0 3 1  1 2 1  1 3 1
CELLS 2 18
8 0 1 3 2 4 5 7 6
8 8 9 11 10 12 13 15 14
CELL_TYPES 2
12
12
POINT_DATA 16
SCALARS scalars float 1
LOOKUP_TABLE default
0.0 1.0 2.0 3.0 4.0 5.0 6.0 7.0
7.0 6.0 5.0 4.0 3.0 2.0 1.0 0.0
