# vtk DataFile Version 3.0
vtk output
ASCII
DATASET UNSTRUCTURED_GRID
POINTS 16 float
0 0 0  0 1 0  1 0 0  1 1 0
0 0 1  0 1 1  1 0 1  1 1 1
0 2 0  0 3 0  1 2 0  1 3 0
0 2 1  0 3 1  1 2 1  1 3 1
CELLS 1 17
16 0 1 2 3 4 5 6 7 8 9 10 11 12 13 14 15
CELL_TYPES 1
2
POINT_DATA 16
SCALARS scalars float 1
LOOKUP_TABLE default
0.0 1.0 2.0 3.0 4.0 5.0 6.0 7.0
7.0 6.0 5.0 4.0 3.0 2.0 1.0 0.0
