atom_style  peri
units       si

###############################################
# Physical Constants
###############################################

include constant.include
variable c equal 66666.66666666667151730507612228393555
variable hor equal 1.50000000000000000000000000000000
variable s00 equal 0.00400000000000000008326672684689
variable alpha equal 0.90000000000000002220446049250313
variable dens equal 900.00000000000000000000000000000000
variable waterDensity equal 1017.00000000000000000000000000000000
variable airDensity equal 1.00000000000000000000000000000000
variable gravity equal 9.81000000000000049737991503207013
variable Cdo equal 0.00000000000000000000000000000000
variable Cda equal 0.00000000000000000000000000000000

###############################################
# Geometry-related parameters
###############################################

include simbox.include
boundary f f f
atom_modify map array
variable x0 equal 0.00000000000000000000000000000000
variable x1 equal 140.00000000000000000000000000000000
variable y0 equal 0.00000000000000000000000000000000
variable y1 equal 40.00000000000000000000000000000000
variable z0 equal -20.00000000000000000000000000000000
variable z1 equal 20.00000000000000000000000000000000
region boxreg block ${x0} ${x1} ${y0} ${y1} ${z0} ${z1} units box
region boxreg block 0 ${x1} ${y0} ${y1} ${z0} ${z1} units box
region boxreg block 0 140 ${y0} ${y1} ${z0} ${z1} units box
region boxreg block 0 140 0 ${y1} ${z0} ${z1} units box
region boxreg block 0 140 0 40 ${z0} ${z1} units box
region boxreg block 0 140 0 40 -20 ${z1} units box
region boxreg block 0 140 0 40 -20 20 units box
create_box 1 boxreg
Created orthogonal box = (0 0 -20) to (140 40 20)
  1 by 1 by 1 MPI processor grid

###############################################
# Create atoms
###############################################

include atom.include
lattice sc 0.50000000000000000000000000000000
Lattice spacing in x,y,z = 0.5 0.5 0.5
region slab1 block 10.00000000000000000000000000000000 69.75000000000000000000000000000000 10.00000000000000000000000000000000 30.00000000000000000000000000000000 -1.50000000000000000000000000000000 -1.00000000000000000000000000000000 units box
region slab2 block 70.25000000000000000000000000000000 130.00000000000000000000000000000000 10.00000000000000000000000000000000 30.00000000000000000000000000000000 -2.00000000000000000000000000000000 -1.00000000000000000000000000000000 units box
create_atoms 1 region slab1
Created 9840 atoms
  Time spent = 0.0478501 secs
create_atoms 1 region slab2
Created 14760 atoms
  Time spent = 0.0552499 secs
group 1 region slab1
9840 atoms in group 1
group 2 region slab2
14760 atoms in group 2
set atom 1 mass 58.89895162389994709428719943389297
  1 settings made for mass
set atom 2 mass 58.90206877651925765349005814641714
  1 settings made for mass
set atom 3 mass 58.90837770348664292896501137875021
  1 settings made for mass
set atom 4 mass 58.90781921715977631492933141998947
  1 settings made for mass
set atom 5 mass 58.91402585598179797443663119338453
  1 settings made for mass
set atom 6 mass 58.90568415893627474133609212003648
  1 settings made for mass
set atom 7 mass 58.90654586670107306645149947144091
  1 settings made for mass
set atom 8 mass 58.90621828571104146021752967499197
  1 settings made for mass
set atom 9 mass 58.89399559323175736835764837451279
  1 settings made for mass
set atom 10 mass 58.89891670681114987928594928234816
  1 settings made for mass
set atom 11 mass 58.89871740005109757021273253485560
  1 settings made for mass
set atom 12 mass 58.90510948214223674312961520627141
  1 settings made for mass
set atom 13 mass 58.89790020592629815610052901320159
  1 settings made for mass
set atom 14 mass 58.90371508458877514158302801661193
  1 settings made for mass
set atom 15 mass 58.90498407565853256073751254007220
  1 settings made for mass
set atom 16 mass 58.90403173427620231450418941676617
  1 settings made for mass
set atom 17 mass 58.90560614036593278797226957976818
  1 settings made for mass
set atom 18 mass 58.90360035983317033014827757142484
  1 settings made for mass
set atom 19 mass 58.90584397573560693217586958780885
  1 settings made for mass
set atom 20 mass 58.90789960384090306888538179919124
  1 settings made for mass
set atom 21 mass 58.90881587765655780231099925003946
  1 settings made for mass
set atom 22 mass 58.89837191508515701343640103004873
  1 settings made for mass
set atom 23 mass 58.90181585758877957914592116139829
  1 settings made for mass
set atom 24 mass 58.90109233189881621228778385557234
  1 settings made for mass
set atom 25 mass 58.90714515647426452460422297008336
  1 settings made for mass
set atom 26 mass 58.90098084650840348786005051806569
  1 settings made for mass
set atom 27 mass 58.89471555506696631709928624331951
  1 settings made for mass
set atom 28 mass 58.89906155728063197329902322962880
  1 settings made for mass
set atom 29 mass 58.90215425900529311320497072301805
  1 settings made for mass
set atom 30 mass 58.88518674461349888815675512887537
  1 settings made for mass
set atom 31 mass 58.90965480993264691278454847633839
  1 settings made for mass
set atom 32 mass 58.90847105480295198276508017443120
  1 settings made for mass
set atom 33 mass 58.91827190307123629509078455157578
  1 settings made for mass
set atom 34 mass 58.90494418293850742429640376940370
  1 settings made for mass
set atom 35 mass 58.90377471922710839180581388063729
  1 settings made for mass
set atom 36 mass 58.90834798196386401514246244914830
  1 settings made for mass
set atom 37 mass 58.90093553734087095108407083898783
  1 settings made for mass
set atom 38 mass 58.89432236087651517664198763668537
  1 settings made for mass
set atom 39 mass 58.90801976908134207633338519372046
  1 settings made for mass
set atom 40 mass 58.89719786221977670948035665787756
  1 settings made for mass
set atom 41 mass 58.91728821776251834307913668453693
  1 settings made for mass
set atom 42 mass 58.90424544493989600368877290748060
  1 settings made for mass
set atom 43 mass 58.89911636391978078108877525664866
  1 settings made for mass
set atom 44 mass 58.89250327239899718279048101976514
  1 settings made for mass
set atom 45 mass 58.92558472289992010928472154773772
  1 settings made for mass
set atom 46 mass 58.89999458650376595869602169841528
  1 settings made for mass
set atom 47 mass 58.91847726178551880593659006990492
  1 settings made for mass
set atom 48 mass 58.90116725911131823067989898845553
  1 settings made for mass
set atom 49 mass 58.90876128510789300207761698402464
  1 settings made for mass
set atom 50 mass 58.90460873116804663141010678373277
  1 settings made for mass
set atom 51 mass 58.89823530179055666167187155224383
  1 settings made for mass
set atom 52 mass 58.91075455120986958945650258101523
  1 settings made for mass
set atom 53 mass 58.89930854233229950978056876920164
  1 settings made for mass
set atom 54 mass 58.90956329330420260248502017930150
  1 settings made for mass
set atom 55 mass 58.90220680026840938126042601652443
  1 settings made for mass
set atom 56 mass 58.91107983536029024662639130838215
  1 settings made for mass
set atom 57 mass 58.89685634365908128984301583841443
  1 settings made for mass
set atom 58 mass 58.90851720119154322219401365146041
  1 settings made for mass
set atom 59 mass 58.90633717470006303074114839546382
  1 settings made for mass
set atom 60 mass 58.90516982639978493807575432583690
  1 settings made for mass
set atom 61 mass 58.90393671842164025065358146093786
  1 settings made for mass
set atom 62 mass 58.91044849945857464490472921170294
  1 settings made for mass
set atom 63 mass 58.90148729243087899476449820213020
  1 settings made for mass
set atom 64 mass 58.91168886514317648561700480058789
  1 settings made for mass
set atom 65 mass 58.90964995140728177602795767597854
  1 settings made for mass
set atom 66 mass 58.90886674931775246477627661079168
  1 settings made for mass
set atom 67 mass 58.90408171963346006805295473895967
  1 settings made for mass
set atom 68 mass 58.89362647868466638101381249725819
  1 settings made for mass
set atom 69 mass 58.90529727503162860102747799828649
  1 settings made for mass
set atom 70 mass 58.90436561505313051156917936168611
  1 settings made for mass
set atom 71 mass 58.89762092958785189011905458755791
  1 settings made for mass
set atom 72 mass 58.90197108724043317806717823259532
  1 settings made for mass
set atom 73 mass 58.90496437795960815719809033907950
  1 settings made for mass
set atom 74 mass 58.91209886913112825368443736806512
  1 settings made for mass
set atom 75 mass 58.91062286861240693269792245700955
  1 settings made for mass
set atom 76 mass 58.90637709414598077728442149236798
  1 settings made for mass
set atom 77 mass 58.91669082794955158988159382715821
  1 settings made for mass
set atom 78 mass 58.89759573922210478258421062491834
  1 settings made for mass
set atom 79 mass 58.90984032085480492924034479074180
  1 settings made for mass
set atom 80 mass 58.90039593060679834479742567054927
  1 settings made for mass
set atom 81 mass 58.91061258926159638349417946301401
  1 settings made for mass
set atom 82 mass 58.89776175785247147587142535485327
  1 settings made for mass
set atom 83 mass 58.90861220849702561963567859493196
  1 settings made for mass
set atom 84 mass 58.90694296514282513044236111454666
  1 settings made for mass
set atom 85 mass 58.90307575957627506113567505963147
  1 settings made for mass
set atom 86 mass 58.89944279538024574094379204325378
  1 settings made for mass
set atom 87 mass 58.91128717689490201792068546637893
  1 settings made for mass
set atom 88 mass 58.90753698201704224857166991569102
  1 settings made for mass
set atom 89 mass 58.89797759700948631689243484288454
  1 settings made for mass
set atom 90 mass 58.90538526124667129124645725823939
  1 settings made for mass
set atom 91 mass 58.90057167806156712686060927808285
  1 settings made for mass
set atom 92 mass 58.90640221462483339109894586727023
  1 settings made for mass
set atom 93 mass 58.89811696709122657011903356760740
  1 settings made for mass
set atom 94 mass 58.90531740273043226352456258609891
  1 settings made for mass
set atom 95 mass 58.90544803347978586316457949578762
  1 settings made for mass
set atom 96 mass 58.89237123216191349683867883868515
  1 settings made for mass
set atom 97 mass 58.91142654048878313233217340894043
  1 settings made for mass
set atom 98 mass 58.91914964559444456426717806607485
  1 settings made for mass
set atom 99 mass 58.90145043114983991472399793565273
  1 settings made for mass
set atom 100 mass 58.91267685912104212775375344790518
  1 settings made for mass
set atom 101 mass 58.90592141682527937973645748570561
  1 settings made for mass
set atom 102 mass 58.90691534740837909112087800167501
  1 settings made for mass
set atom 103 mass 58.91392053518379157139861490577459
  1 settings made for mass
set atom 104 mass 58.91133945884013911609144997783005
  1 settings made for mass
set atom 105 mass 58.90980677381375585355272050946951
  1 settings made for mass
set atom 106 mass 58.91397909221237227939127478748560
  1 settings made for mass
set atom 107 mass 58.89265653359153418477944796904922
  1 settings made for mass
set atom 108 mass 58.90556139953984882140503032132983
  1 settings made for mass
set atom 109 mass 58.90332886012347302084890543483198
  1 settings made for mass
set atom 110 mass 58.90543272098700811056914972141385
  1 settings made for mass
set atom 111 mass 58.90093329790515497279557166621089
  1 settings made for mass
set atom 112 mass 58.90128189756443077840231126174331
  1 settings made for mass
set atom 113 mass 58.88928052174136240637380979023874
  1 settings made for mass
set atom 114 mass 58.90822200688320720018964493647218
  1 settings made for mass
set atom 115 mass 58.89350755382551483307906892150640
  1 settings made for mass
set atom 116 mass 58.91474397472239843409624882042408
  1 settings made for mass
set atom 117 mass 58.90513620532953353858829359523952
  1 settings made for mass
set atom 118 mass 58.90061587444781565636731102131307
  1 settings made for mass
set atom 119 mass 58.90017893633480383641654043458402
  1 settings made for mass
set atom 120 mass 58.90012495678202242288534762337804
  1 settings made for mass
set atom 121 mass 58.91309980292553660774501622654498
  1 settings made for mass
set atom 122 mass 58.90271640758037108298594830557704
  1 settings made for mass
set atom 123 mass 58.91797949766001352145394776016474
  1 settings made for mass
set atom 124 mass 58.90432871111813994957628892734647
  1 settings made for mass
set atom 125 mass 58.91190603442156970004361937753856
  1 settings made for mass
set atom 126 mass 58.89075587264149191923934267833829
  1 settings made for mass
set atom 127 mass 58.91210259705160723342487472109497
  1 settings made for mass
set atom 128 mass 58.91040108141582010148340486921370
  1 settings made for mass
set atom 129 mass 58.91343484264670138372821384109557
  1 settings made for mass
set atom 130 mass 58.91432254978565907777010579593480
  1 settings made for mass
set atom 131 mass 58.90851924730114319572749081999063
  1 settings made for mass
set atom 132 mass 58.91111446198850387645506998524070
  1 settings made for mass
set atom 133 mass 58.89939006168194879364818916656077
  1 settings made for mass
set atom 134 mass 58.91023427072825313643988920375705
  1 settings made for mass
set atom 135 mass 58.90064000584688841399838565848768
  1 settings made for mass
set atom 136 mass 58.89515936417869568231253651902080
  1 settings made for mass
set atom 137 mass 58.92211666414207371644806698895991
  1 settings made for mass
set atom 138 mass 58.90405878276396833825856447219849
  1 settings made for mass
set atom 139 mass 58.90948586277860243853865540586412
  1 settings made for mass
set atom 140 mass 58.90454374342765220262663206085563
  1 settings made for mass
set atom 141 mass 58.89780896554160705136382603086531
  1 settings made for mass
set atom 142 mass 58.89921115234621851186602725647390
  1 settings made for mass
set atom 143 mass 58.90421804017248774698600755073130
  1 settings made for mass
set atom 144 mass 58.90135036731348350258485879749060
  1 settings made for mass
set atom 145 mass 58.89751158569816169574551167897880
  1 settings made for mass
set atom 146 mass 58.91179734960727643056088709272444
  1 settings made for mass
set atom 147 mass 58.90176140310803276634032954461873
  1 settings made for mass
set atom 148 mass 58.92057750738612753593770321458578
  1 settings made for mass
set atom 149 mass 58.90169298293844235558935906738043
  1 settings made for mass
set atom 150 mass 58.90244563264033672567165922373533
  1 settings made for mass
set atom 151 mass 58.89910630108344946620491100475192
  1 settings made for mass
set atom 152 mass 58.91683403536484320284216664731503
  1 settings made for mass
set atom 153 mass 58.90453328090811169204243924468756
  1 settings made for mass
set atom 154 mass 58.90731037520642132676584878936410
  1 settings made for mass
set atom 155 mass 58.91191493768844367195924860425293
  1 settings made for mass
set atom 156 mass 58.90907216824172820679450524039567
  1 settings made for mass
set atom 157 mass 58.89402012851007128801938961260021
  1 settings made for mass
set atom 158 mass 58.91491468645328666298155440017581
  1 settings made for mass
set atom 159 mass 58.90744181290415326657239347696304
  1 settings made for mass
set atom 160 mass 58.90863712157928944179730024188757
  1 settings made for mass
set atom 161 mass 58.90878823134958253149306983686984
  1 settings made for mass
set atom 162 mass 58.90282785974724077959763235412538
  1 settings made for mass
set atom 163 mass 58.90757929792281544223442324437201
  1 settings made for mass
set atom 164 mass 58.90951290868183320981188444420695
  1 settings made for mass
set atom 165 mass 58.89769736073019146260776324197650
  1 settings made for mass
set atom 166 mass 58.90383478479502343816420761868358
  1 settings made for mass
set atom 167 mass 58.90230335340918799147402751259506
  1 settings made for mass
set atom 168 mass 58.90634138073797743118120706640184
  1 settings made for mass
set atom 169 mass 58.90324774158786169664381304755807
  1 settings made for mass
set atom 170 mass 58.90508255151571859187242807820439
  1 settings made for mass
set atom 171 mass 58.90399536640671840359573252499104
  1 settings made for mass
set atom 172 mass 58.92420112998058812081580981612206
  1 settings made for mass
set atom 173 mass 58.91000784381903088160470360890031
  1 settings made for mass
set atom 174 mass 58.89525000297261669857107335701585
  1 settings made for mass
set atom 175 mass 58.90877279613651751333236461505294
  1 settings made for mass
set atom 176 mass 58.89921599339776037140836706385016
  1 settings made for mass
set atom 177 mass 58.90806573274495150371876661665738
  1 settings made for mass
set atom 178 mass 58.90199291256575264696948579512537
  1 settings made for mass
set atom 179 mass 58.90671210064714102827565511688590
  1 settings made for mass
set atom 180 mass 58.90027375584517699280695524066687
  1 settings made for mass
set atom 181 mass 58.90678572464305062794664991088212
  1 settings made for mass
set atom 182 mass 58.90983038880269617720841779373586
  1 settings made for mass
set atom 183 mass 58.90441323902034298498620046302676
  1 settings made for mass
set atom 184 mass 58.90811157383336649218108505010605
  1 settings made for mass
set atom 185 mass 58.91315483355486293248759466223419
  1 settings made for mass
set atom 186 mass 58.89853905331025885061535518616438
  1 settings made for mass
set atom 187 mass 58.91433592128402096932404674589634
  1 settings made for mass
set atom 188 mass 58.90057402535228447959525510668755
  1 settings made for mass
set atom 189 mass 58.90736757085965535907234880141914
  1 settings made for mass
set atom 190 mass 58.89703086727593017712933942675591
  1 settings made for mass
set atom 191 mass 58.90190198418399347701779333874583
  1 settings made for mass
set atom 192 mass 58.89652214055718104646075516939163
  1 settings made for mass
set atom 193 mass 58.89672408323523455919712432660162
  1 settings made for mass
set atom 194 mass 58.90287278006410787156710284762084
  1 settings made for mass
set atom 195 mass 58.90198501435310873830530908890069
  1 settings made for mass
set atom 196 mass 58.88960609720658823107442003674805
  1 settings made for mass
set atom 197 mass 58.90258695231627683597253053449094
  1 settings made for mass
set atom 198 mass 58.92035046012869514697740669362247
  1 settings made for mass
set atom 199 mass 58.89835177628611262434787931852043
  1 settings made for mass
set atom 200 mass 58.90544989365492511979027767665684
  1 settings made for mass
set atom 201 mass 58.90429815734751173295080661773682
  1 settings made for mass
set atom 202 mass 58.90855781776072319644299568608403
  1 settings made for mass
set atom 203 mass 58.89848078482401660949108190834522
  1 settings made for mass
set atom 204 mass 58.90641352629081950453837634995580
  1 settings made for mass
set atom 205 mass 58.90602899550078319634849322028458
  1 settings made for mass
set atom 206 mass 58.91212434894658400708067347295582
  1 settings made for mass
set atom 207 mass 58.89783789082138554249468143098056
  1 settings made for mass
set atom 208 mass 58.90071870003185239283993723802269
  1 settings made for mass
set atom 209 mass 58.90493418549542781192940310575068
  1 settings made for mass
set atom 210 mass 58.90852834614769761856223340146244
  1 settings made for mass
set atom 211 mass 58.90071108250349141144397435709834
  1 settings made for mass
set atom 212 mass 58.90676261913983324802757124416530
  1 settings made for mass
set atom 213 mass 58.90938556550634075392736122012138
  1 settings made for mass
set atom 214 mass 58.91474110851987688874942250549793
  1 settings made for mass
set atom 215 mass 58.90286443575615038525938871316612
  1 settings made for mass
set atom 216 mass 58.90111423539514845515441265888512
  1 settings made for mass
set atom 217 mass 58.90491645069582915539285750128329
  1 settings made for mass
set atom 218 mass 58.90919622863953719615892623551190
  1 settings made for mass
set atom 219 mass 58.90437715809237317898805486038327
  1 settings made for mass
set atom 220 mass 58.89641334712337084056343883275986
  1 settings made for mass
set atom 221 mass 58.90582136387361344986857147887349
  1 settings made for mass
set atom 222 mass 58.89666952731122506747851730324328
  1 settings made for mass
set atom 223 mass 58.90979372075100428673977148719132
  1 settings made for mass
set atom 224 mass 58.89702064306801077009367872960865
  1 settings made for mass
set atom 225 mass 58.88965596675706137830275110900402
  1 settings made for mass
set atom 226 mass 58.89809305455182908417555154301226
  1 settings made for mass
set atom 227 mass 58.91184113683976875108783133327961
  1 settings made for mass
set atom 228 mass 58.90713044015016208732049562968314
  1 settings made for mass
set atom 229 mass 58.89928305545247155805554939433932
  1 settings made for mass
set atom 230 mass 58.90150328543140290094015654176474
  1 settings made for mass
set atom 231 mass 58.90528415097934811228697071783245
  1 settings made for mass
set atom 232 mass 58.90330898737185094660162576474249
  1 settings made for mass
set atom 233 mass 58.90508824538287058203422930091619
  1 settings made for mass
set atom 234 mass 58.91298536297825449992160429246724
  1 settings made for mass
set atom 235 mass 58.91489504017457790041589760221541
  1 settings made for mass
set atom 236 mass 58.89844135929352830771676963195205
  1 settings made for mass
set atom 237 mass 58.89837038587708661907527130097151
  1 settings made for mass
set atom 238 mass 58.90446814048706869471061509102583
  1 settings made for mass
set atom 239 mass 58.90355073437605426533991703763604
  1 settings made for mass
set atom 240 mass 58.90703649479107184561144094914198
  1 settings made for mass
set atom 241 mass 58.90361224424913189068320207297802
  1 settings made for mass
set atom 242 mass 58.90433505160812188705676817335188
  1 settings made for mass
set atom 243 mass 58.91101674252771402962025604210794
  1 settings made for mass
set atom 244 mass 58.90763785701626176205536467023194
  1 settings made for mass
set atom 245 mass 58.92064856865344779635051963850856
  1 settings made for mass
set atom 246 mass 58.90467329043902822149902931414545
  1 settings made for mass
set atom 247 mass 58.90196179257350195257458835840225
  1 settings made for mass
set atom 248 mass 58.90562411168146894624442211352289
  1 settings made for mass
set atom 249 mass 58.90306412134150804149612667970359
  1 settings made for mass
set atom 250 mass 58.91074549593493969723567715846002
  1 settings made for mass
set atom 251 mass 58.90198016643854117546652560122311
  1 settings made for mass
set atom 252 mass 58.89303007235493225834943586960435
  1 settings made for mass
set atom 253 mass 58.89559232085155571212453651241958
  1 settings made for mass
set atom 254 mass 58.89815369878539996761901420541108
  1 settings made for mass
set atom 255 mass 58.88963012146803777113746036775410
  1 settings made for mass
set atom 256 mass 58.89559066949793475487240357324481
  1 settings made for mass
set atom 257 mass 58.91109143178399421003632596693933
  1 settings made for mass
set atom 258 mass 58.90787179195059763969766208902001
  1 settings made for mass
set atom 259 mass 58.89889582228210684888836112804711
  1 settings made for mass
set atom 260 mass 58.89914682826903913337446283549070
  1 settings made for mass
set atom 261 mass 58.89645739159112025618014740757644
  1 settings made for mass
set atom 262 mass 58.89575776984492705423690495081246
  1 settings made for mass
set atom 263 mass 58.90249342663592102553593576885760
  1 settings made for mass
set atom 264 mass 58.89237207605546586819400545209646
  1 settings made for mass
set atom 265 mass 58.90202698276080894856931990943849
  1 settings made for mass
set atom 266 mass 58.90104050704544391692252247594297
  1 settings made for mass
set atom 267 mass 58.90463393562236404932264122180641
  1 settings made for mass
set atom 268 mass 58.91417776933613481560314539819956
  1 settings made for mass
set atom 269 mass 58.89864735968483699934949981980026
  1 settings made for mass
set atom 270 mass 58.90498892753591064774809638038278
  1 settings made for mass
set atom 271 mass 58.90556872560244983105803839862347
  1 settings made for mass
set atom 272 mass 58.90565308790616683154439670033753
  1 settings made for mass
set atom 273 mass 58.90926242923594458034131093882024
  1 settings made for mass
set atom 274 mass 58.90038367454285861413154634647071
  1 settings made for mass
set atom 275 mass 58.89909505360493824355216929689050
  1 settings made for mass
set atom 276 mass 58.90690068132925460986371035687625
  1 settings made for mass
set atom 277 mass 58.90603420926714761662879027426243
  1 settings made for mass
set atom 278 mass 58.90886383081489441337907919660211
  1 settings made for mass
set atom 279 mass 58.89691285079879179420458967797458
  1 settings made for mass
set atom 280 mass 58.91080228598362111824826570227742
  1 settings made for mass
set atom 281 mass 58.90366700837729041495549608953297
  1 settings made for mass
set atom 282 mass 58.90359813011025380546925589442253
  1 settings made for mass
set atom 283 mass 58.91104061540905689753344631753862
  1 settings made for mass
set atom 284 mass 58.90475014721082658297746093012393
  1 settings made for mass
set atom 285 mass 58.89742191156331330148532288148999
  1 settings made for mass
set atom 286 mass 58.90448754647619722391027607955039
  1 settings made for mass
set atom 287 mass 58.91417177982281572212741593830287
  1 settings made for mass
set atom 288 mass 58.90513516398846149968449026346207
  1 settings made for mass
set atom 289 mass 58.90288222971704357178168720565736
  1 settings made for mass
set atom 290 mass 58.91112286453716961887039360590279
  1 settings made for mass
set atom 291 mass 58.91048373500768065014199237339199
  1 settings made for mass
set atom 292 mass 58.90681107211813127833011094480753
  1 settings made for mass
set atom 293 mass 58.90389976111254810575701412744820
  1 settings made for mass
set atom 294 mass 58.90502841243028342432808130979538
  1 settings made for mass
set atom 295 mass 58.91241518922846864825260126963258
  1 settings made for mass
set atom 296 mass 58.90866326701667077259116922505200
  1 settings made for mass
set atom 297 mass 58.90945342597828471298271324485540
  1 settings made for mass
set atom 298 mass 58.89965738236741543687458033673465
  1 settings made for mass
set atom 299 mass 58.90428023997630191388452658429742
  1 settings made for mass
set atom 300 mass 58.89431225387062340814736671745777
  1 settings made for mass
set atom 301 mass 58.91439739074049697364898747764528
  1 settings made for mass
set atom 302 mass 58.90351355441936220813659019768238
  1 settings made for mass
set atom 303 mass 58.89964279421307224993142881430686
  1 settings made for mass
set atom 304 mass 58.90429729493652644123358186334372
  1 settings made for mass
set atom 305 mass 58.90912809120653292893621255643666
  1 settings made for mass
set atom 306 mass 58.90449911671915117494791047647595
  1 settings made for mass
set atom 307 mass 58.91199929932245993313699727877975
  1 settings made for mass
set atom 308 mass 58.89515655604204624751218943856657
  1 settings made for mass
set atom 309 mass 58.90130050983822229682118631899357
  1 settings made for mass
set atom 310 mass 58.90462625885683678461646195501089
  1 settings made for mass
set atom 311 mass 58.89839630295370653811914962716401
  1 settings made for mass
set atom 312 mass 58.90758168385740134453953942283988
  1 settings made for mass
set atom 313 mass 58.90558906016675422279149643145502
  1 settings made for mass
set atom 314 mass 58.90234515972465345612363307736814
  1 settings made for mass
set atom 315 mass 58.91927015458257699265232076868415
  1 settings made for mass
set atom 316 mass 58.90207848401247758829413214698434
  1 settings made for mass
set atom 317 mass 58.91003803791230097886000294238329
  1 settings made for mass
set atom 318 mass 58.91019165389079148553719278424978
  1 settings made for mass
set atom 319 mass 58.91380875473292633159871911630034
  1 settings made for mass
set atom 320 mass 58.90046747640929680756016750819981
  1 settings made for mass
set atom 321 mass 58.90591899423938571089820470660925
  1 settings made for mass
set atom 322 mass 58.90199357001440461090169264934957
  1 settings made for mass
set atom 323 mass 58.90736707835294083679400500841439
  1 settings made for mass
set atom 324 mass 58.90636759073905892591938027180731
  1 settings made for mass
set atom 325 mass 58.90447783791630342875578207895160
  1 settings made for mass
set atom 326 mass 58.91626770724897710351797286421061
  1 settings made for mass
set atom 327 mass 58.91195946435399832807888742536306
  1 settings made for mass
set atom 328 mass 58.91233486671561081493564415723085
  1 settings made for mass
set atom 329 mass 58.90677516152538828464457765221596
  1 settings made for mass
set atom 330 mass 58.91385957582001964283335837535560
  1 settings made for mass
set atom 331 mass 58.90182863489059172934503294527531
  1 settings made for mass
set atom 332 mass 58.90383464730474116777259041555226
  1 settings made for mass
set atom 333 mass 58.90810105574163202390991500578821
  1 settings made for mass
set atom 334 mass 58.90442235071341769980790559202433
  1 settings made for mass
set atom 335 mass 58.90018040790739917156315641477704
  1 settings made for mass
set atom 336 mass 58.89336270420856322971303598023951
  1 settings made for mass
set atom 337 mass 58.89857266034743332738798926584423
  1 settings made for mass
set atom 338 mass 58.90834214892944231678484356962144
  1 settings made for mass
set atom 339 mass 58.89122382070279115851008100435138
  1 settings made for mass
set atom 340 mass 58.90276739283245177603021147660911
  1 settings made for mass
set atom 341 mass 58.90512861697208535360914538614452
  1 settings made for mass
set atom 342 mass 58.89708761852956087068378110416234
  1 settings made for mass
set atom 343 mass 58.91291777308376964583658264018595
  1 settings made for mass
set atom 344 mass 58.90572059645757008183863945305347
  1 settings made for mass
set atom 345 mass 58.90074635372330646987393265590072
  1 settings made for mass
set atom 346 mass 58.90453582469400117815894191153347
  1 settings made for mass
set atom 347 mass 58.89695098436286002652195747941732
  1 settings made for mass
set atom 348 mass 58.90318472903982893740248982794583
  1 settings made for mass
set atom 349 mass 58.91071570912459520741322194226086
  1 settings made for mass
set atom 350 mass 58.90111381597690609623896307311952
  1 settings made for mass
set atom 351 mass 58.90927002518984068046847824007273
  1 settings made for mass
set atom 352 mass 58.90481674323321215069881873205304
  1 settings made for mass
set atom 353 mass 58.90451854672787845856873900629580
  1 settings made for mass
set atom 354 mass 58.89927991647032001765182940289378
  1 settings made for mass
set atom 355 mass 58.90307281078821688424795866012573
  1 settings made for mass
set atom 356 mass 58.89842600545101447551132878288627
  1 settings made for mass
set atom 357 mass 58.91483831597638953780915471725166
  1 settings made for mass
set atom 358 mass 58.90914115287881003268921631388366
  1 settings made for mass
set atom 359 mass 58.90851721123443240912820328958333
  1 settings made for mass
set atom 360 mass 58.90313690917640343513994594104588
  1 settings made for mass
set atom 361 mass 58.90003093776578424467516015283763
  1 settings made for mass
set atom 362 mass 58.90231571959162693019607104361057
  1 settings made for mass
set atom 363 mass 58.90905924933770876350536127574742
  1 settings made for mass
set atom 364 mass 58.89705574762592021897944505326450
  1 settings made for mass
set atom 365 mass 58.91401019273882155857791076414287
  1 settings made for mass
set atom 366 mass 58.91789030999869680726988008245826
  1 settings made for mass
set atom 367 mass 58.91073388061367666068690596148372
  1 settings made for mass
set atom 368 mass 58.90256838700775432471345993690193
  1 settings made for mass
set atom 369 mass 58.90922619453316855242519523017108
  1 settings made for mass
set atom 370 mass 58.90809683927245288259655353613198
  1 settings made for mass
set atom 371 mass 58.91418998147679531030007638037205
  1 settings made for mass
set atom 372 mass 58.88966022792646981542930006980896
  1 settings made for mass
set atom 373 mass 58.89909555099941229627802385948598
  1 settings made for mass
set atom 374 mass 58.90378370160015464307434740476310
  1 settings made for mass
set atom 375 mass 58.91532800136224778952964697964489
  1 settings made for mass
set atom 376 mass 58.91084369671413867308729095384479
  1 settings made for mass
set atom 377 mass 58.90085047104683724228380015119910
  1 settings made for mass
set atom 378 mass 58.91028404841750187870275112800300
  1 settings made for mass
set atom 379 mass 58.90602033553150818079302553087473
  1 settings made for mass
set atom 380 mass 58.89712510394337385832841391675174
  1 settings made for mass
set atom 381 mass 58.91497146667166617817201768048108
  1 settings made for mass
set atom 382 mass 58.91027761723149325234771822579205
  1 settings made for mass
set atom 383 mass 58.89609080607716151689601247198880
  1 settings made for mass
set atom 384 mass 58.90199837186009546030618366785347
  1 settings made for mass
set atom 385 mass 58.91005791768385790874162921682000
  1 settings made for mass
set atom 386 mass 58.91399964685081869220084627158940
  1 settings made for mass
set atom 387 mass 58.90903601923866261813600431196392
  1 settings made for mass
set atom 388 mass 58.89884503710894136929709929972887
  1 settings made for mass
set atom 389 mass 58.90011042438987232117142411880195
  1 settings made for mass
set atom 390 mass 58.90515590099868603601862560026348
  1 settings made for mass
set atom 391 mass 58.91145279896129238750290824100375
  1 settings made for mass
set atom 392 mass 58.89225385557200098674002219922841
  1 settings made for mass
set atom 393 mass 58.88913043976877048635287792421877
  1 settings made for mass
set atom 394 mass 58.91452872505356452847991022281349
  1 settings made for mass
set atom 395 mass 58.92220816319359499857455375604331
  1 settings made for mass
set atom 396 mass 58.90440725396273791147905285470188
  1 settings made for mass
set atom 397 mass 58.90315220619611835672913002781570
  1 settings made for mass
set atom 398 mass 58.91048328430828462387580657377839
  1 settings made for mass
set atom 399 mass 58.90622124137904336294013774022460
  1 settings made for mass
set atom 400 mass 58.90263276981794149378401925787330
  1 settings made for mass
set atom 401 mass 58.90234682850343261861780774779618
  1 settings made for mass
set atom 402 mass 58.89649706363380943230367847718298
  1 settings made for mass
set atom 403 mass 58.91643503081696309209291939623654
  1 settings made for mass
set atom 404 mass 58.91570644778983734113353420980275
  1 settings made for mass
set atom 405 mass 58.91386427242301948581371107138693
  1 settings made for mass
set atom 406 mass 58.91119317844289327013029833324254
  1 settings made for mass
set atom 407 mass 58.90725658792180752243439201265574
  1 settings made for mass
set atom 408 mass 58.91429412380886532218937645666301
  1 settings made for mass
set atom 409 mass 58.91266858863166078208450926467776
  1 settings made for mass
set atom 410 mass 58.90076228645547473661281401291490
  1 settings made for mass
set atom 411 mass 58.91162473711253255714836996048689
  1 settings made for mass
set atom 412 mass 58.90419040162127117810086929239333
  1 settings made for mass
set atom 413 mass 58.89545392475416463184956228360534
  1 settings made for mass
set atom 414 mass 58.89746744102657061148420325480402
  1 settings made for mass
set atom 415 mass 58.89543151318013514128324459306896
  1 settings made for mass
set atom 416 mass 58.90808906060372862611984601244330
  1 settings made for mass
set atom 417 mass 58.91479559549397748696719645522535
  1 settings made for mass
set atom 418 mass 58.90458561314269303466062410734594
  1 settings made for mass
set atom 419 mass 58.90826272726911838617525063455105
  1 settings made for mass
set atom 420 mass 58.89982010444844462426772224716842
  1 settings made for mass
set atom 421 mass 58.89987301290221211047537508420646
  1 settings made for mass
set atom 422 mass 58.90173986740821732155382051132619
  1 settings made for mass
set atom 423 mass 58.89803565439783028523379471153021
  1 settings made for mass
set atom 424 mass 58.91085432105300867533514974638820
  1 settings made for mass
set atom 425 mass 58.90432959311560523474327055737376
  1 settings made for mass
set atom 426 mass 58.90539029941414383984010783024132
  1 settings made for mass
set atom 427 mass 58.91210262948991527309772209264338
  1 settings made for mass
set atom 428 mass 58.89847929148309901847824221476912
  1 settings made for mass
set atom 429 mass 58.90451131811462914811272639781237
  1 settings made for mass
set atom 430 mass 58.91105517672704650067316833883524
  1 settings made for mass
set atom 431 mass 58.90548530252328163214770029298961
  1 settings made for mass
set atom 432 mass 58.91183973214298674747624318115413
  1 settings made for mass
set atom 433 mass 58.90688831338768238765624118968844
  1 settings made for mass
set atom 434 mass 58.89574687339128900021023582667112
  1 settings made for mass
set atom 435 mass 58.91115742745341776753775775432587
  1 settings made for mass
set atom 436 mass 58.89903350027944384237343911081553
  1 settings made for mass
set atom 437 mass 58.89582559166963449115428375080228
  1 settings made for mass
set atom 438 mass 58.90480642809917100066741113550961
  1 settings made for mass
set atom 439 mass 58.90416250284078358845363254658878
  1 settings made for mass
set atom 440 mass 58.90228975948402734275077818892896
  1 settings made for mass
set atom 441 mass 58.91027452183443102740056929178536
  1 settings made for mass
set atom 442 mass 58.89526570044667863612630753777921
  1 settings made for mass
set atom 443 mass 58.89883657631807523102906998246908
  1 settings made for mass
set atom 444 mass 58.90865945166250838838095660321414
  1 settings made for mass
set atom 445 mass 58.91169865794870474928757175803185
  1 settings made for mass
set atom 446 mass 58.90907835479708154480249504558742
  1 settings made for mass
set atom 447 mass 58.90676208642109656921093119308352
  1 settings made for mass
set atom 448 mass 58.91944751985131034643927705474198
  1 settings made for mass
set atom 449 mass 58.90253320204588760589103912934661
  1 settings made for mass
set atom 450 mass 58.90590539637549483131806482560933
  1 settings made for mass
set atom 451 mass 58.89493539195286331278111902065575
  1 settings made for mass
set atom 452 mass 58.90557771331333469788660295307636
  1 settings made for mass
set atom 453 mass 58.90041595382617600762387155555189
  1 settings made for mass
set atom 454 mass 58.90634104615792665526896598748863
  1 settings made for mass
set atom 455 mass 58.91579901393426865752189769409597
  1 settings made for mass
set atom 456 mass 58.89968317845651313291455153375864
  1 settings made for mass
set atom 457 mass 58.90768161015900972188319428823888
  1 settings made for mass
set atom 458 mass 58.90211885947449133027475909329951
  1 settings made for mass
set atom 459 mass 58.90341733605718843591603217646480
  1 settings made for mass
set atom 460 mass 58.90692446033553864026544033549726
  1 settings made for mass
set atom 461 mass 58.89987843264733413661815575323999
  1 settings made for mass
set atom 462 mass 58.89761376200510767375817522406578
  1 settings made for mass
set atom 463 mass 58.90592426491039645952696446329355
  1 settings made for mass
set atom 464 mass 58.90401650261639332484264741651714
  1 settings made for mass
set atom 465 mass 58.89283430379218486905301688238978
  1 settings made for mass
set atom 466 mass 58.91173550420686666484471061266959
  1 settings made for mass
set atom 467 mass 58.90534670584000309645489323884249
  1 settings made for mass
set atom 468 mass 58.90562935002930800010290113277733
  1 settings made for mass
set atom 469 mass 58.90660557978932843070651870220900
  1 settings made for mass
set atom 470 mass 58.91112047540366347675444558262825
  1 settings made for mass
set atom 471 mass 58.89814927867999472255178261548281
  1 settings made for mass
set atom 472 mass 58.90972892282135120467501110397279
  1 settings made for mass
set atom 473 mass 58.90678196615247230738532380200922
  1 settings made for mass
set atom 474 mass 58.91757114319106136690606945194304
  1 settings made for mass
set atom 475 mass 58.90417170038274008447842788882554
  1 settings made for mass
set atom 476 mass 58.90384863978834317777000251226127
  1 settings made for mass
set atom 477 mass 58.91482773351953738938391325064003
  1 settings made for mass
set atom 478 mass 58.90877742408678585661618853919208
  1 settings made for mass
set atom 479 mass 58.90551049740698630330371088348329
  1 settings made for mass
set atom 480 mass 58.91455338377393502469203667715192
  1 settings made for mass
set atom 481 mass 58.89600745056619501838213182054460
  1 settings made for mass
set atom 482 mass 58.89684417395626070401704055257142
  1 settings made for mass
set atom 483 mass 58.91204372817600187772768549621105
  1 settings made for mass
set atom 484 mass 58.90660403518689491875193198211491
  1 settings made for mass
set atom 485 mass 58.90923176068172040231729624792933
  1 settings made for mass
set atom 486 mass 58.90915528677219725750546786002815
  1 settings made for mass
set atom 487 mass 58.91118487626351196695395628921688
  1 settings made for mass
set atom 488 mass 58.90335609459771859519605641253293
  1 settings made for mass
set atom 489 mass 58.90478316613668141599191585555673
  1 settings made for mass
set atom 490 mass 58.90329048370154652047858689911664
  1 settings made for mass
set atom 491 mass 58.90786299567179185032728128135204
  1 settings made for mass
set atom 492 mass 58.89382596594515462129493243992329
  1 settings made for mass
set atom 493 mass 58.90208754395786883151231450028718
  1 settings made for mass
set atom 494 mass 58.90490556570278357639836031012237
  1 settings made for mass
set atom 495 mass 58.91659581425527392184449126943946
  1 settings made for mass
set atom 496 mass 58.90001154722101261995703680440784
  1 settings made for mass
set atom 497 mass 58.90528284905767719692448736168444
  1 settings made for mass
set atom 498 mass 58.90799974801534943935621413402259
  1 settings made for mass
set atom 499 mass 58.91107831063372657354193506762385
  1 settings made for mass
set atom 500 mass 58.90570211048617466076393611729145
  1 settings made for mass
set atom 501 mass 58.89312734810138749708130490034819
  1 settings made for mass
set atom 502 mass 58.90894433200437418918227194808424
  1 settings made for mass
set atom 503 mass 58.91038634107827220987019245512784
  1 settings made for mass
set atom 504 mass 58.90905856227028891680674860253930
  1 settings made for mass
set atom 505 mass 58.90261206811208438693938660435379
  1 settings made for mass
set atom 506 mass 58.89947519675219922419273643754423
  1 settings made for mass
set atom 507 mass 58.91081641219764009065329446457326
  1 settings made for mass
set atom 508 mass 58.90727975364149671122504514642060
  1 settings made for mass
set atom 509 mass 58.90393552174000291188349365256727
  1 settings made for mass
set atom 510 mass 58.91214844291310726021038135513663
  1 settings made for mass
set atom 511 mass 58.90416597986832414335367502644658
  1 settings made for mass
set atom 512 mass 58.90143557516277184049613424576819
  1 settings made for mass
set atom 513 mass 58.90663032719082536914356751367450
  1 settings made for mass
set atom 514 mass 58.90406122311141245972976321354508
  1 settings made for mass
set atom 515 mass 58.89913943444781807556864805519581
  1 settings made for mass
set atom 516 mass 58.89577151474694716171143227256835
  1 settings made for mass
set atom 517 mass 58.91389221316494229085947154089808
  1 settings made for mass
set atom 518 mass 58.90592176204923902105292654596269
  1 settings made for mass
set atom 519 mass 58.89775635138574472193795372731984
  1 settings made for mass
set atom 520 mass 58.91281244892625323927859426476061
  1 settings made for mass
set atom 521 mass 58.89955969909600952405526186339557
  1 settings made for mass
set atom 522 mass 58.89937513380969846821244573220611
  1 settings made for mass
set atom 523 mass 58.90686190667045707414217758923769
  1 settings made for mass
set atom 524 mass 58.90735163571779509084080928005278
  1 settings made for mass
set atom 525 mass 58.90105482683018323086798773147166
  1 settings made for mass
set atom 526 mass 58.90664556307285693037556484341621
  1 settings made for mass
set atom 527 mass 58.90193750307807363242318388074636
  1 settings made for mass
set atom 528 mass 58.90713470636435999949753750115633
  1 settings made for mass
set atom 529 mass 58.90888713577020041611831402406096
  1 settings made for mass
set atom 530 mass 58.89956785996626820178789785131812
  1 settings made for mass
set atom 531 mass 58.90581230424293579517325269989669
  1 settings made for mass
set atom 532 mass 58.91276379342117763826536247506738
  1 settings made for mass
set atom 533 mass 58.90768904056602650598506443202496
  1 settings made for mass
set atom 534 mass 58.89276320871798020561982411891222
  1 settings made for mass
set atom 535 mass 58.90136725316229160398506792262197
  1 settings made for mass
set atom 536 mass 58.89973777952040023819790803827345
  1 settings made for mass
set atom 537 mass 58.91480443076337536467690370045602
  1 settings made for mass
set atom 538 mass 58.89718933595317906792843132279813
  1 settings made for mass
set atom 539 mass 58.89545137020985521303373388946056
  1 settings made for mass
set atom 540 mass 58.89800900979721376415909617207944
  1 settings made for mass
set atom 541 mass 58.91958784551140126950485864654183
  1 settings made for mass
set atom 542 mass 58.90954927075706137884480995126069
  1 settings made for mass
set atom 543 mass 58.89902008804407529396485188044608
  1 settings made for mass
set atom 544 mass 58.90808646550497940097557147964835
  1 settings made for mass
set atom 545 mass 58.90733837391944405226240633055568
  1 settings made for mass
set atom 546 mass 58.90684084165334155613891198299825
  1 settings made for mass
set atom 547 mass 58.90198315987260713200157624669373
  1 settings made for mass
set atom 548 mass 58.90607952179563255867833504453301
  1 settings made for mass
set atom 549 mass 58.91060307079872870872350176796317
  1 settings made for mass
set atom 550 mass 58.90152536481475920027151005342603
  1 settings made for mass
set atom 551 mass 58.90243062129449924668733729049563
  1 settings made for mass
set atom 552 mass 58.90182358700509013260671054013073
  1 settings made for mass
set atom 553 mass 58.90004656135987914922225172631443
  1 settings made for mass
set atom 554 mass 58.90871595944134497813138295896351
  1 settings made for mass
set atom 555 mass 58.88888522174264750219663255847991
  1 settings made for mass
set atom 556 mass 58.90275633739057781212977715767920
  1 settings made for mass
set atom 557 mass 58.90894499711604481717586168088019
  1 settings made for mass
set atom 558 mass 58.89864061459956445787611301057041
  1 settings made for mass
set atom 559 mass 58.89875147511136077582705183885992
  1 settings made for mass
set atom 560 mass 58.89501158078812181884131859987974
  1 settings made for mass
set atom 561 mass 58.89366702866699654350668424740434
  1 settings made for mass
set atom 562 mass 58.90851196253876764785673003643751
  1 settings made for mass
set atom 563 mass 58.90217165514875574672259972430766
  1 settings made for mass
set atom 564 mass 58.90948537712329624582707765512168
  1 settings made for mass
set atom 565 mass 58.90872242339502662389350007288158
  1 settings made for mass
set atom 566 mass 58.89974529390100599357538158074021
  1 settings made for mass
set atom 567 mass 58.89796263746294613383724936284125
  1 settings made for mass
set atom 568 mass 58.88643845762507567087595816701651
  1 settings made for mass
set atom 569 mass 58.91283963474052143283188343048096
  1 settings made for mass
set atom 570 mass 58.90663764677886149456753628328443
  1 settings made for mass
set atom 571 mass 58.89111791819671282155468361452222
  1 settings made for mass
set atom 572 mass 58.90314260036054605507160886190832
  1 settings made for mass
set atom 573 mass 58.91579844552047262595806387253106
  1 settings made for mass
set atom 574 mass 58.90209030943615431397120119072497
  1 settings made for mass
set atom 575 mass 58.91348341564269475156834232620895
  1 settings made for mass
set atom 576 mass 58.90032406088850081005148240365088
  1 settings made for mass
set atom 577 mass 58.90482120960528078512652427889407
  1 settings made for mass
set atom 578 mass 58.91382605073708589316083816811442
  1 settings made for mass
set atom 579 mass 58.91599523603980514963041059672832
  1 settings made for mass
set atom 580 mass 58.89880771291872463280014926567674
  1 settings made for mass
set atom 581 mass 58.90845559500882444581293384544551
  1 settings made for mass
set atom 582 mass 58.90072494485073661962815094739199
  1 settings made for mass
set atom 583 mass 58.90767601781408302485942840576172
  1 settings made for mass
set atom 584 mass 58.89376527998324917234640452079475
  1 settings made for mass
set atom 585 mass 58.90876238832252909105591243132949
  1 settings made for mass
set atom 586 mass 58.91121486326873224470546119846404
  1 settings made for mass
set atom 587 mass 58.90017949664930796416228986345232
  1 settings made for mass
set atom 588 mass 58.90832067079695377742609707638621
  1 settings made for mass
set atom 589 mass 58.89831892583179495659351232461631
  1 settings made for mass
set atom 590 mass 58.90191942175069783615981577895582
  1 settings made for mass
set atom 591 mass 58.89916103372348032962690922431648
  1 settings made for mass
set atom 592 mass 58.90189948380472628741699736565351
  1 settings made for mass
set atom 593 mass 58.90745839880013079437048872932792
  1 settings made for mass
set atom 594 mass 58.90051264078080350827804068103433
  1 settings made for mass
set atom 595 mass 58.91782792465511420232360251247883
  1 settings made for mass
set atom 596 mass 58.89597861039501935920270625501871
  1 settings made for mass
set atom 597 mass 58.89846604267300733681622659787536
  1 settings made for mass
set atom 598 mass 58.91022806099724817840979085303843
  1 settings made for mass
set atom 599 mass 58.91211245804326779307302786037326
  1 settings made for mass
set atom 600 mass 58.89706275521249523308142670430243
  1 settings made for mass
set atom 601 mass 58.91098106674635914714599493891001
  1 settings made for mass
set atom 602 mass 58.89410345802846080687231733463705
  1 settings made for mass
set atom 603 mass 58.90243646127579779658844927325845
  1 settings made for mass
set atom 604 mass 58.90419354416815878039415110833943
  1 settings made for mass
set atom 605 mass 58.89279764389345217523441533558071
  1 settings made for mass
set atom 606 mass 58.90941462987306209697635495103896
  1 settings made for mass
set atom 607 mass 58.91161843731345726382642169483006
  1 settings made for mass
set atom 608 mass 58.90422618236822671633490244857967
  1 settings made for mass
set atom 609 mass 58.89546373634365039606564096175134
  1 settings made for mass
set atom 610 mass 58.90819354973309884826448978856206
  1 settings made for mass
set atom 611 mass 58.89072562391793752567537012510002
  1 settings made for mass
set atom 612 mass 58.90454320690149359052156796678901
  1 settings made for mass
set atom 613 mass 58.90695946108581182443231227807701
  1 settings made for mass
set atom 614 mass 58.91248447049925829333005822263658
  1 settings made for mass
set atom 615 mass 58.90064406899008986329135950654745
  1 settings made for mass
set atom 616 mass 58.91254842000397218271245947107673
  1 settings made for mass
set atom 617 mass 58.90668100028165099502075463533401
  1 settings made for mass
set atom 618 mass 58.89853531989894008802366442978382
  1 settings made for mass
set atom 619 mass 58.90735703507512965870773768983781
  1 settings made for mass
set atom 620 mass 58.91261699833803788806108059361577
  1 settings made for mass
set atom 621 mass 58.90483790103873218413355061784387
  1 settings made for mass
set atom 622 mass 58.90948459353656829762257984839380
  1 settings made for mass
set atom 623 mass 58.91039263463530772924059419892728
  1 settings made for mass
set atom 624 mass 58.90325335222659219880370073951781
  1 settings made for mass
set atom 625 mass 58.90475367840578257982997456565499
  1 settings made for mass
set atom 626 mass 58.90894536761547328751476015895605
  1 settings made for mass
set atom 627 mass 58.91263453470240563092374941334128
  1 settings made for mass
set atom 628 mass 58.90950693809021743163611972704530
  1 settings made for mass
set atom 629 mass 58.91725871755701859910914208739996
  1 settings made for mass
set atom 630 mass 58.90327145914307038765400648117065
  1 settings made for mass
set atom 631 mass 58.89784934212147504695167299360037
  1 settings made for mass
set atom 632 mass 58.90832069144462934673356357961893
  1 settings made for mass
set atom 633 mass 58.90857335461896582273766398429871
  1 settings made for mass
set atom 634 mass 58.89822938117734452134754974395037
  1 settings made for mass
set atom 635 mass 58.90413359168321250081135076470673
  1 settings made for mass
set atom 636 mass 58.91102787402929408244744990952313
  1 settings made for mass
set atom 637 mass 58.90029595733084022413095226511359
  1 settings made for mass
set atom 638 mass 58.89482470582133544212410924956203
  1 settings made for mass
set atom 639 mass 58.90392246085031757729666423983872
  1 settings made for mass
set atom 640 mass 58.90583725062984399301058147102594
  1 settings made for mass
set atom 641 mass 58.88480187824105627214521518908441
  1 settings made for mass
set atom 642 mass 58.90192950169178942587677738629282
  1 settings made for mass
set atom 643 mass 58.89848790537396183708551689051092
  1 settings made for mass
set atom 644 mass 58.90430174980330946254980517551303
  1 settings made for mass
set atom 645 mass 58.90394080400299969824118306860328
  1 settings made for mass
set atom 646 mass 58.90690515894048218115131021477282
  1 settings made for mass
set atom 647 mass 58.90131115423658769714165828190744
  1 settings made for mass
set atom 648 mass 58.90498709905997287705758935771883
  1 settings made for mass
set atom 649 mass 58.89659047001293856737902387976646
  1 settings made for mass
set atom 650 mass 58.90635736265110722342797089368105
  1 settings made for mass
set atom 651 mass 58.89197796391898265255804290063679
  1 settings made for mass
set atom 652 mass 58.91307049923669580948626389726996
  1 settings made for mass
set atom 653 mass 58.90029445303560606816972722299397
  1 settings made for mass
set atom 654 mass 58.91630224235677104616115684621036
  1 settings made for mass
set atom 655 mass 58.90258119305436679269405431114137
  1 settings made for mass
set atom 656 mass 58.90489762296829923116092686541378
  1 settings made for mass
set atom 657 mass 58.90650320630862069037902983836830
  1 settings made for mass
set atom 658 mass 58.90060377440303085450068465434015
  1 settings made for mass
set atom 659 mass 58.89655636628699397761010914109647
  1 settings made for mass
set atom 660 mass 58.90912850047043747281350078992546
  1 settings made for mass
set atom 661 mass 58.90091389641791863596154144033790
  1 settings made for mass
set atom 662 mass 58.91401658364411275670136092230678
  1 settings made for mass
set atom 663 mass 58.90667360275224950783012900501490
  1 settings made for mass
set atom 664 mass 58.90966645264157364181301090866327
  1 settings made for mass
set atom 665 mass 58.90436841143139190535293892025948
  1 settings made for mass
set atom 666 mass 58.90507832393251419489388354122639
  1 settings made for mass
set atom 667 mass 58.90418244420591520338348345831037
  1 settings made for mass
set atom 668 mass 58.90129603761003096451531746424735
  1 settings made for mass
set atom 669 mass 58.90698636644003727269591763615608
  1 settings made for mass
set atom 670 mass 58.89180414088617254719792981632054
  1 settings made for mass
set atom 671 mass 58.89661302220781635696766898036003
  1 settings made for mass
set atom 672 mass 58.90323816555326175148366019129753
  1 settings made for mass
set atom 673 mass 58.89908239353559338269405998289585
  1 settings made for mass
set atom 674 mass 58.90926545517009316199619206599891
  1 settings made for mass
set atom 675 mass 58.91194904234428975087212165817618
  1 settings made for mass
set atom 676 mass 58.90581642748715296420414233580232
  1 settings made for mass
set atom 677 mass 58.90813806372007377376576187089086
  1 settings made for mass
set atom 678 mass 58.89932440745646857749306946061552
  1 settings made for mass
set atom 679 mass 58.90092687172945318252459401264787
  1 settings made for mass
set atom 680 mass 58.90975567496151654722780222073197
  1 settings made for mass
set atom 681 mass 58.90588607363662987381758284755051
  1 settings made for mass
set atom 682 mass 58.90295154642653585597145138308406
  1 settings made for mass
set atom 683 mass 58.90385473209698119489985401742160
  1 settings made for mass
set atom 684 mass 58.90605996475113670385326258838177
  1 settings made for mass
set atom 685 mass 58.90999805929794774783658795058727
  1 settings made for mass
set atom 686 mass 58.90321964019091183217824436724186
  1 settings made for mass
set atom 687 mass 58.90550050849093821625501732341945
  1 settings made for mass
set atom 688 mass 58.89801715586827413062565028667450
  1 settings made for mass
set atom 689 mass 58.91106881954881657748046563938260
  1 settings made for mass
set atom 690 mass 58.90173824552599057824409101158381
  1 settings made for mass
set atom 691 mass 58.89912764667047184730108710937202
  1 settings made for mass
set atom 692 mass 58.89128292098923367348106694407761
  1 settings made for mass
set atom 693 mass 58.91147095767477281924584531225264
  1 settings made for mass
set atom 694 mass 58.91598221147157232735480647534132
  1 settings made for mass
set atom 695 mass 58.89157314761786210510763339698315
  1 settings made for mass
set atom 696 mass 58.91017671376415165696016629226506
  1 settings made for mass
set atom 697 mass 58.90695142365289171948461444117129
  1 settings made for mass
set atom 698 mass 58.90902735660213807022955734282732
  1 settings made for mass
set atom 699 mass 58.90399050749041975905129220336676
  1 settings made for mass
set atom 700 mass 58.89836867459831637461320497095585
  1 settings made for mass
set atom 701 mass 58.89603542792078627599039464257658
  1 settings made for mass
set atom 702 mass 58.90383184379744818670587847009301
  1 settings made for mass
set atom 703 mass 58.90775017792213930079014971852303
  1 settings made for mass
set atom 704 mass 58.90947075554959155851975083351135
  1 settings made for mass
set atom 705 mass 58.92041242310105531032604631036520
  1 settings made for mass
set atom 706 mass 58.90113575654859090491299866698682
  1 settings made for mass
set atom 707 mass 58.91187031708570742694064392708242
  1 settings made for mass
set atom 708 mass 58.90982963839002906070163589902222
  1 settings made for mass
set atom 709 mass 58.90856802416907811448254506103694
  1 settings made for mass
set atom 710 mass 58.91277287296172460173693252727389
  1 settings made for mass
set atom 711 mass 58.89892248278002284678223077207804
  1 settings made for mass
set atom 712 mass 58.90550963755541147293115500360727
  1 settings made for mass
set atom 713 mass 58.89913215748940444882464362308383
  1 settings made for mass
set atom 714 mass 58.90559477325695070248912088572979
  1 settings made for mass
set atom 715 mass 58.90910225173068681669974466785789
  1 settings made for mass
set atom 716 mass 58.90600335414304566938881180249155
  1 settings made for mass
set atom 717 mass 58.91101092644004921794476103968918
  1 settings made for mass
set atom 718 mass 58.90644606557764006993238581344485
  1 settings made for mass
set atom 719 mass 58.91266986556372131644820910878479
  1 settings made for mass
set atom 720 mass 58.90667838062046968161666882224381
  1 settings made for mass
set atom 721 mass 58.90107371454842422053843620233238
  1 settings made for mass
set atom 722 mass 58.89593171544879623979795724153519
  1 settings made for mass
set atom 723 mass 58.90437154740099856553570134565234
  1 settings made for mass
set atom 724 mass 58.90335127778511292717666947282851
  1 settings made for mass
set atom 725 mass 58.90904224707615099987378926016390
  1 settings made for mass
set atom 726 mass 58.90451268127796424778352957218885
  1 settings made for mass
set atom 727 mass 58.91103072295018705517577473074198
  1 settings made for mass
set atom 728 mass 58.90699284468332308506433037109673
  1 settings made for mass
set atom 729 mass 58.91155677659715195204626070335507
  1 settings made for mass
set atom 730 mass 58.89910415937342946790522546507418
  1 settings made for mass
set atom 731 mass 58.89710486725136462382579338736832
  1 settings made for mass
set atom 732 mass 58.89308261119986553921989980153739
  1 settings made for mass
set atom 733 mass 58.89632045560541229178852518089116
  1 settings made for mass
set atom 734 mass 58.89924215875294066790957003831863
  1 settings made for mass
set atom 735 mass 58.90058821251393084139635902829468
  1 settings made for mass
set atom 736 mass 58.89828061872645292851302656345069
  1 settings made for mass
set atom 737 mass 58.91110117496381093360469094477594
  1 settings made for mass
set atom 738 mass 58.91471216924834664041554788127542
  1 settings made for mass
set atom 739 mass 58.90057327211727766780313686467707
  1 settings made for mass
set atom 740 mass 58.90733903538085769469034858047962
  1 settings made for mass
set atom 741 mass 58.90130956357174341064819600433111
  1 settings made for mass
set atom 742 mass 58.91231875430552378247739397920668
  1 settings made for mass
set atom 743 mass 58.91106707853915480654904968105257
  1 settings made for mass
set atom 744 mass 58.89941323741176404382713371887803
  1 settings made for mass
set atom 745 mass 58.90546698117051960252865683287382
  1 settings made for mass
set atom 746 mass 58.90680735236127674170347745530307
  1 settings made for mass
set atom 747 mass 58.90769799534506745430917362682521
  1 settings made for mass
set atom 748 mass 58.91406265600294034356920747086406
  1 settings made for mass
set atom 749 mass 58.90791235457075458725739736109972
  1 settings made for mass
set atom 750 mass 58.89808112468582379506187862716615
  1 settings made for mass
set atom 751 mass 58.90017214216043583974169450812042
  1 settings made for mass
set atom 752 mass 58.90047629849686217085036332719028
  1 settings made for mass
set atom 753 mass 58.89313622089728283981457934714854
  1 settings made for mass
set atom 754 mass 58.89713597153116353410950978286564
  1 settings made for mass
set atom 755 mass 58.91455705051485125522958696819842
  1 settings made for mass
set atom 756 mass 58.89749677340572731054635369218886
  1 settings made for mass
set atom 757 mass 58.91423783002539238395911525003612
  1 settings made for mass
set atom 758 mass 58.89522148009941560076185851357877
  1 settings made for mass
set atom 759 mass 58.91892168270012319908346398733556
  1 settings made for mass
set atom 760 mass 58.90380689153705873195576714351773
  1 settings made for mass
set atom 761 mass 58.90945456162848614667382207699120
  1 settings made for mass
set atom 762 mass 58.89303585221767889379407279193401
  1 settings made for mass
set atom 763 mass 58.90218865286190208507832721807063
  1 settings made for mass
set atom 764 mass 58.89608306542805138406038167886436
  1 settings made for mass
set atom 765 mass 58.90070169172979319682781351730227
  1 settings made for mass
set atom 766 mass 58.91341272295120745638996595516801
  1 settings made for mass
set atom 767 mass 58.89414886957192862837473512627184
  1 settings made for mass
set atom 768 mass 58.89887384359344224549204227514565
  1 settings made for mass
set atom 769 mass 58.90563058703646248659424600191414
  1 settings made for mass
set atom 770 mass 58.90105827075932865000140736810863
  1 settings made for mass
set atom 771 mass 58.90558920570501300062460359185934
  1 settings made for mass
set atom 772 mass 58.90368165914880194122815737500787
  1 settings made for mass
set atom 773 mass 58.90975689314138463714698445983231
  1 settings made for mass
set atom 774 mass 58.90450918896323884155208361335099
  1 settings made for mass
set atom 775 mass 58.90157823667748004936584038659930
  1 settings made for mass
set atom 776 mass 58.90668766933548283759591868147254
  1 settings made for mass
set atom 777 mass 58.90649018170886108691775007173419
  1 settings made for mass
set atom 778 mass 58.91303388046902966834750259295106
  1 settings made for mass
set atom 779 mass 58.89759667513931162829976528882980
  1 settings made for mass
set atom 780 mass 58.90175499928482594214074197225273
  1 settings made for mass
set atom 781 mass 58.90511563539248385268365382216871
  1 settings made for mass
set atom 782 mass 58.90589615249353272474763798527420
  1 settings made for mass
set atom 783 mass 58.89952479373482674418482929468155
  1 settings made for mass
set atom 784 mass 58.91101987726946731527277734130621
  1 settings made for mass
set atom 785 mass 58.89609216996309015712540713138878
  1 settings made for mass
set atom 786 mass 58.90062855209498593467287719249725
  1 settings made for mass
set atom 787 mass 58.89857953887503327905506012029946
  1 settings made for mass
set atom 788 mass 58.89770000241885838931921171024442
  1 settings made for mass
set atom 789 mass 58.90247499942818620866091805510223
  1 settings made for mass
set atom 790 mass 58.90128205442801601066094008274376
  1 settings made for mass
set atom 791 mass 58.89624698457476625890194554813206
  1 settings made for mass
set atom 792 mass 58.90789371770244287063178489916027
  1 settings made for mass
set atom 793 mass 58.90253092005357160587664111517370
  1 settings made for mass
set atom 794 mass 58.89932708897545410309248836711049
  1 settings made for mass
set atom 795 mass 58.90611202564467419051652541384101
  1 settings made for mass
set atom 796 mass 58.90853277525382480916960048489273
  1 settings made for mass
set atom 797 mass 58.91075434824266920941226999275386
  1 settings made for mass
set atom 798 mass 58.91721500709252268279669806361198
  1 settings made for mass
set atom 799 mass 58.91579680158611864726481144316494
  1 settings made for mass
set atom 800 mass 58.90493533339687104444237775169313
  1 settings made for mass
set atom 801 mass 58.90176216744529114066608599387109
  1 settings made for mass
set atom 802 mass 58.89961967335619164032323169521987
  1 settings made for mass
set atom 803 mass 58.91550874877869858892154297791421
  1 settings made for mass
set atom 804 mass 58.89892529534169085536632337607443
  1 settings made for mass
set atom 805 mass 58.90593354672069636990272556431592
  1 settings made for mass
set atom 806 mass 58.90641505217786288994830101728439
  1 settings made for mass
set atom 807 mass 58.90251830382113951145583996549249
  1 settings made for mass
set atom 808 mass 58.89566716148265612673640134744346
  1 settings made for mass
set atom 809 mass 58.91296374946406189110348350368440
  1 settings made for mass
set atom 810 mass 58.90734554748878082364171859808266
  1 settings made for mass
set atom 811 mass 58.89414296678793903083715122193098
  1 settings made for mass
set atom 812 mass 58.90031076121338315942921326495707
  1 settings made for mass
set atom 813 mass 58.89227102597675411743693985044956
  1 settings made for mass
set atom 814 mass 58.89663775480955365537738543935120
  1 settings made for mass
set atom 815 mass 58.90868096050758140336256474256516
  1 settings made for mass
set atom 816 mass 58.90931206253089413849011179991066
  1 settings made for mass
set atom 817 mass 58.90847032182162479330145288258791
  1 settings made for mass
set atom 818 mass 58.90386055525913633346135611645877
  1 settings made for mass
set atom 819 mass 58.90999776935388609899746370501816
  1 settings made for mass
set atom 820 mass 58.91047894809365459423133870586753
  1 settings made for mass
set atom 821 mass 58.90497024576115592253700015135109
  1 settings made for mass
set atom 822 mass 58.92286796967613327069557271897793
  1 settings made for mass
set atom 823 mass 58.90400942653869975629277178086340
  1 settings made for mass
set atom 824 mass 58.91056108965369730867678299546242
  1 settings made for mass
set atom 825 mass 58.89408492221504332064796471968293
  1 settings made for mass
set atom 826 mass 58.90026509043887870120670413598418
  1 settings made for mass
set atom 827 mass 58.90897745218709502523779519833624
  1 settings made for mass
set atom 828 mass 58.90015393748866046053080935962498
  1 settings made for mass
set atom 829 mass 58.90881630837880322815180988982320
  1 settings made for mass
set atom 830 mass 58.90187588215448499795456882566214
  1 settings made for mass
set atom 831 mass 58.90625549759470658273130538873374
  1 settings made for mass
set atom 832 mass 58.90568736323668730392455472610891
  1 settings made for mass
set atom 833 mass 58.90476079031414258224685909226537
  1 settings made for mass
set atom 834 mass 58.91368585671258273350758827291429
  1 settings made for mass
set atom 835 mass 58.90559815608344962356568430550396
  1 settings made for mass
set atom 836 mass 58.90558623577817343175411224365234
  1 settings made for mass
set atom 837 mass 58.91211200516155344075741595588624
  1 settings made for mass
set atom 838 mass 58.90704057880522270806977758184075
  1 settings made for mass
set atom 839 mass 58.89925559914012609397104824893177
  1 settings made for mass
set atom 840 mass 58.91460966460140014078206149861217
  1 settings made for mass
set atom 841 mass 58.90882933500269302840024465695024
  1 settings made for mass
set atom 842 mass 58.90856047443873677593728643842041
  1 settings made for mass
set atom 843 mass 58.90481334172559968465066049247980
  1 settings made for mass
set atom 844 mass 58.90209071899706572139621130190790
  1 settings made for mass
set atom 845 mass 58.89798338021985557588777737691998
  1 settings made for mass
set atom 846 mass 58.89748424838204954312459449283779
  1 settings made for mass
set atom 847 mass 58.91193662221765947606400004588068
  1 settings made for mass
set atom 848 mass 58.90473921462696438311468227766454
  1 settings made for mass
set atom 849 mass 58.91176667707073022484109969809651
  1 settings made for mass
set atom 850 mass 58.90324912859375672269379720091820
  1 settings made for mass
set atom 851 mass 58.90742706370168946250487351790071
  1 settings made for mass
set atom 852 mass 58.89461219227285226907042670063674
  1 settings made for mass
set atom 853 mass 58.90769027757344389328864053823054
  1 settings made for mass
set atom 854 mass 58.90910987592743452978538698516786
  1 settings made for mass
set atom 855 mass 58.90694868700703068498114589601755
  1 settings made for mass
set atom 856 mass 58.90458687480399646574369398877025
  1 settings made for mass
set atom 857 mass 58.89796849953685864420549478381872
  1 settings made for mass
set atom 858 mass 58.89640697095377674941119039431214
  1 settings made for mass
set atom 859 mass 58.90828879223127501063572708517313
  1 settings made for mass
set atom 860 mass 58.90814304653228816732735140249133
  1 settings made for mass
set atom 861 mass 58.90722776328133392098607146181166
  1 settings made for mass
set atom 862 mass 58.90507266405043651502637658268213
  1 settings made for mass
set atom 863 mass 58.89692712317326339643841492943466
  1 settings made for mass
set atom 864 mass 58.91392586630404082370660034939647
  1 settings made for mass
set atom 865 mass 58.90679152926674078116775490343571
  1 settings made for mass
set atom 866 mass 58.90472385022235357610043138265610
  1 settings made for mass
set atom 867 mass 58.90523061954043981813811114989221
  1 settings made for mass
set atom 868 mass 58.91216753680844675500338780693710
  1 settings made for mass
set atom 869 mass 58.89625469894757259226025780662894
  1 settings made for mass
set atom 870 mass 58.90277863514967293667723424732685
  1 settings made for mass
set atom 871 mass 58.90971122091136891185669810511172
  1 settings made for mass
set atom 872 mass 58.90438564709538837860236526466906
  1 settings made for mass
set atom 873 mass 58.91928935437860559432010632008314
  1 settings made for mass
set atom 874 mass 58.90253218735762885671647381968796
  1 settings made for mass
set atom 875 mass 58.89496601593102553806602372787893
  1 settings made for mass
set atom 876 mass 58.89571308151966633204210666008294
  1 settings made for mass
set atom 877 mass 58.91065223604994827155678649432957
  1 settings made for mass
set atom 878 mass 58.90396693269227768041673698462546
  1 settings made for mass
set atom 879 mass 58.90013154471462542005610885098577
  1 settings made for mass
set atom 880 mass 58.89943158118600052830515778623521
  1 settings made for mass
set atom 881 mass 58.90260327622255687174401828087866
  1 settings made for mass
set atom 882 mass 58.90479338304165679573998204432428
  1 settings made for mass
set atom 883 mass 58.90256576653224840356415370479226
  1 settings made for mass
set atom 884 mass 58.90157614230322025150599074549973
  1 settings made for mass
set atom 885 mass 58.89634971926891182647523237392306
  1 settings made for mass
set atom 886 mass 58.91189677531566104562443797476590
  1 settings made for mass
set atom 887 mass 58.90717699533916373866304638795555
  1 settings made for mass
set atom 888 mass 58.91930705417239977350618573836982
  1 settings made for mass
set atom 889 mass 58.90840374972570714362518629059196
  1 settings made for mass
set atom 890 mass 58.90203254163681378940964350476861
  1 settings made for mass
set atom 891 mass 58.90327654837022919309674762189388
  1 settings made for mass
set atom 892 mass 58.90848798260965679673972772434354
  1 settings made for mass
set atom 893 mass 58.91085999899320313488715328276157
  1 settings made for mass
set atom 894 mass 58.89972457340477518528132350184023
  1 settings made for mass
set atom 895 mass 58.90547625065710946046237950213253
  1 settings made for mass
set atom 896 mass 58.89703305967663027331582270562649
  1 settings made for mass
set atom 897 mass 58.89814491983490540860657347366214
  1 settings made for mass
set atom 898 mass 58.91774275543257033405097899958491
  1 settings made for mass
set atom 899 mass 58.89856270261113024844235042110085
  1 settings made for mass
set atom 900 mass 58.91084029636379426619896548800170
  1 settings made for mass
set atom 901 mass 58.90508602681436656212099478580058
  1 settings made for mass
set atom 902 mass 58.89648644578173986019464791752398
  1 settings made for mass
set atom 903 mass 58.90266057504130259303565253503621
  1 settings made for mass
set atom 904 mass 58.90946155671454675939457956701517
  1 settings made for mass
set atom 905 mass 58.91141939462448817721451632678509
  1 settings made for mass
set atom 906 mass 58.90389399354560850952111650258303
  1 settings made for mass
set atom 907 mass 58.90038986924314201587549177929759
  1 settings made for mass
set atom 908 mass 58.89599133272032815966667840257287
  1 settings made for mass
set atom 909 mass 58.90069130483228576622423133812845
  1 settings made for mass
set atom 910 mass 58.90515224395919346989103360101581
  1 settings made for mass
set atom 911 mass 58.91490299786044460006451117806137
  1 settings made for mass
set atom 912 mass 58.90298884098164222677951329387724
  1 settings made for mass
set atom 913 mass 58.89315370708381180975266033783555
  1 settings made for mass
set atom 914 mass 58.90556967280620881410868605598807
  1 settings made for mass
set atom 915 mass 58.90447120852108753297216026112437
  1 settings made for mass
set atom 916 mass 58.90508880739250230362813454121351
  1 settings made for mass
set atom 917 mass 58.90704342680281513366935541853309
  1 settings made for mass
set atom 918 mass 58.91319688802526144399962504394352
  1 settings made for mass
set atom 919 mass 58.91136850472358332808653358370066
  1 settings made for mass
set atom 920 mass 58.90778102144376049409402185119689
  1 settings made for mass
set atom 921 mass 58.89743859619208876665652496740222
  1 settings made for mass
set atom 922 mass 58.90655587616696209352085134014487
  1 settings made for mass
set atom 923 mass 58.89431663379708226102593471296132
  1 settings made for mass
set atom 924 mass 58.91234148222058308874693466350436
  1 settings made for mass
set atom 925 mass 58.90448518021035795300122117623687
  1 settings made for mass
set atom 926 mass 58.90582135121460538584869937039912
  1 settings made for mass
set atom 927 mass 58.90753853630852177047927398234606
  1 settings made for mass
set atom 928 mass 58.91778993468166447655676165595651
  1 settings made for mass
set atom 929 mass 58.88921312385031825442638364620507
  1 settings made for mass
set atom 930 mass 58.89665178131085809809519560076296
  1 settings made for mass
set atom 931 mass 58.89910599881544328582094749435782
  1 settings made for mass
set atom 932 mass 58.90931037886855392571305856108665
  1 settings made for mass
set atom 933 mass 58.90001504240530749711979296989739
  1 settings made for mass
set atom 934 mass 58.89581427539601321541340439580381
  1 settings made for mass
set atom 935 mass 58.90397466829119821341009810566902
  1 settings made for mass
set atom 936 mass 58.91009062798067930089018773287535
  1 settings made for mass
set atom 937 mass 58.90480017455859496067205327562988
  1 settings made for mass
set atom 938 mass 58.90153554310834493890070007182658
  1 settings made for mass
set atom 939 mass 58.90009933264631314386861049570143
  1 settings made for mass
set atom 940 mass 58.91363666711411184451208100654185
  1 settings made for mass
set atom 941 mass 58.89400495874400576212792657315731
  1 settings made for mass
set atom 942 mass 58.90664533983446915499371243640780
  1 settings made for mass
set atom 943 mass 58.90724592387737601484332117252052
  1 settings made for mass
set atom 944 mass 58.91063713761173659122505341656506
  1 settings made for mass
set atom 945 mass 58.89862399673540949152084067463875
  1 settings made for mass
set atom 946 mass 58.90533875922293560734033235348761
  1 settings made for mass
set atom 947 mass 58.90832261829388727392142754979432
  1 settings made for mass
set atom 948 mass 58.90491058294914950010934262536466
  1 settings made for mass
set atom 949 mass 58.89622191573892706628612359054387
  1 settings made for mass
set atom 950 mass 58.89954909842494856775374501012266
  1 settings made for mass
set atom 951 mass 58.89631779052992044398706639185548
  1 settings made for mass
set atom 952 mass 58.90231376602271495812601642683148
  1 settings made for mass
set atom 953 mass 58.90289429627188155791372992098331
  1 settings made for mass
set atom 954 mass 58.91263326578791037491100723855197
  1 settings made for mass
set atom 955 mass 58.90158896570324742469892953522503
  1 settings made for mass
[...]

###############################################
# Computes and Property/atom variables
###############################################

variable    velocity atom sqrt(vx*vx+vy*vy+vz*vz)
variable    R        atom (3/4*mass/(${dens}*PI))^(1/3)
variable    R        atom (3/4*mass/(900*PI))^(1/3)
variable    vol      atom mass/${dens}
variable    vol      atom mass/900
variable    area     atom PI*(v_R)^2
variable    denst    atom mass/(4/3*PI*(${diam}/2)^3)
variable    denst    atom mass/(4/3*PI*(0.5/2)^3)
compute     1        all  damage/atom

###############################################
# Force Calculations - vertical
###############################################

# Buoyancy calculation (need displaced volume):
variable h     atom (z<-v_R)*(2*v_R+z)+(z>=v_R)*(v_R+z)
variable Vwed  atom 1/3*PI*v_h^2*(3*v_R-v_h)

variable V1    atom (z<-v_R)*(z>=-2*v_R)*(v_vol-v_Vwed)
variable V2    atom (z<0)*(z>=-v_R)*(v_Vwed)
variable V3    atom (z<-2*v_R)*v_vol

variable Vdisp atom v_V1+v_V2+v_V3

# Non-Contact Forces (not handled through pair style): Buoyancy, Gravity, Drag
variable Fb    atom ${waterDensity}*${gravity}*v_Vdisp
variable Fb    atom 1017*${gravity}*v_Vdisp
variable Fb    atom 1017*9.81*v_Vdisp
variable Fg    atom ${gravity}*mass
variable Fg    atom 9.81*mass
variable Fdz   atom (z<v_R)*((vz<=0)-(vz>0))*(1/2*${Cdo}*${waterDensity}*v_area*vz^2)
variable Fdz   atom (z<v_R)*((vz<=0)-(vz>0))*(1/2*0*${waterDensity}*v_area*vz^2)
variable Fdz   atom (z<v_R)*((vz<=0)-(vz>0))*(1/2*0*1017*v_area*vz^2)
variable Fztot atom v_Fb-v_Fg+v_Fdz

###############################################
# Force Calculations - horizontal
###############################################

variable Fdx   atom (z<v_R)*((vx<=0)-(vx>0))*(1/2*${Cdo}*${waterDensity}*v_area*vx^2)
variable Fdx   atom (z<v_R)*((vx<=0)-(vx>0))*(1/2*0*${waterDensity}*v_area*vx^2)
variable Fdx   atom (z<v_R)*((vx<=0)-(vx>0))*(1/2*0*1017*v_area*vx^2)
variable Fxtot atom v_Fdx

variable Fdy   atom (z<v_R)*((vy<=0)-(vy>0))*(1/2*${Cdo}*${waterDensity}*v_area*vy^2)
variable Fdy   atom (z<v_R)*((vy<=0)-(vy>0))*(1/2*0*${waterDensity}*v_area*vy^2)
variable Fdy   atom (z<v_R)*((vy<=0)-(vy>0))*(1/2*0*1017*v_area*vy^2)
variable Fytot atom v_Fdx

###############################################
# Fixes and pair styles
###############################################

comm_style    tiled
timestep      0.0005

pair_style    peri/pmb
pair_coeff    * * ${c} ${hor} ${s00} ${alpha}
pair_coeff    * * 66666.6666666667 ${hor} ${s00} ${alpha}
pair_coeff    * * 66666.6666666667 1.5 ${s00} ${alpha}
pair_coeff    * * 66666.6666666667 1.5 0.004 ${alpha}
pair_coeff    * * 66666.6666666667 1.5 0.004 0.9

fix           1 all    nve
fix           2 all    addforce v_Fxtot v_Fytot v_Fztot
fix           3 all    wall/reflect xhi EDGE xlo EDGE yhi EDGE ylo EDGE

###############################################
# Run settings
###############################################

variable      dumpfreq equal 200
variable      logfreq equal 100

variable      skin equal ${diam}
variable      skin equal 0.5
neighbor      ${skin} bin
neighbor      0.5 bin

comm_modify	  vel yes cutoff ${diam}
comm_modify	  vel yes cutoff 0.5

thermo_style	custom step cpu atoms ke lx
thermo_modify	flush yes lost warn
thermo          ${logfreq}
thermo          100

run  0
Neighbor list info ...
  update every 1 steps, delay 10 steps, check yes
  max neighbors/atom: 2000, page size: 100000
  master list distance cutoff = 2
  ghost atom cutoff = 2
  binsize = 1, bins = 140 40 40
  2 neighbor lists, perpetual/occasional/extra = 1 1 0
  (1) pair peri/pmb, perpetual
      attributes: half, newton on
      pair build: half/bin/atomonly/newton
      stencil: half/bin/3d/newton
      bin: standard
  (2) fix PERI_NEIGH, occasional
      attributes: full, newton on
      pair build: full/bin/atomonly
      stencil: full/bin/3d
      bin: standard
Peridynamic bonds:
  total # of bonds = 1571392
  bonds/atom = 63.8777
Per MPI rank memory allocation (min/avg/max) = 56.33 | 56.33 | 56.33 Mbytes
Step CPU Atoms KinEng Lx 
       0            0    24600            0          140 
Loop time of 1.90735e-06 on 1 procs for 0 steps with 24600 atoms

104.9% CPU use with 1 MPI tasks x no OpenMP threads

MPI task timing breakdown:
Section |  min time  |  avg time  |  max time  |%varavg| %total
---------------------------------------------------------------
Pair    | 0          | 0          | 0          |   0.0 |  0.00
Neigh   | 0          | 0          | 0          |   0.0 |  0.00
Comm    | 0          | 0          | 0          |   0.0 |  0.00
Output  | 0          | 0          | 0          |   0.0 |  0.00
Modify  | 0          | 0          | 0          |   0.0 |  0.00
Other   |            | 1.907e-06  |            |       |100.00

Nlocal:    24600 ave 24600 max 24600 min
Histogram: 1 0 0 0 0 0 0 0 0 0
Nghost:    0 ave 0 max 0 min
Histogram: 1 0 0 0 0 0 0 0 0 0
Neighs:    1.366e+06 ave 1.366e+06 max 1.366e+06 min
Histogram: 1 0 0 0 0 0 0 0 0 0
FullNghs:  2.732e+06 ave 2.732e+06 max 2.732e+06 min
Histogram: 1 0 0 0 0 0 0 0 0 0

Total # of neighbors = 2731996
Ave neighs/atom = 111.057
Neighbor list builds = 0
Dangerous builds = 0

dump 1        all custom ${dumpfreq} ../data/DUMP/slab_vis.dump id x y z v_denst c_1
dump 1        all custom 200 ../data/DUMP/slab_vis.dump id x y z v_denst c_1

run	 5000
Neighbor list info ...
  update every 1 steps, delay 10 steps, check yes
  max neighbors/atom: 2000, page size: 100000
  master list distance cutoff = 2
  ghost atom cutoff = 2
  binsize = 1, bins = 140 40 40
  1 neighbor lists, perpetual/occasional/extra = 1 0 0
  (1) pair peri/pmb, perpetual
      attributes: half, newton on
      pair build: half/bin/atomonly/newton
      stencil: half/bin/3d/newton
      bin: standard
Per MPI rank memory allocation (min/avg/max) = 48.27 | 48.27 | 48.27 Mbytes
Step CPU Atoms KinEng Lx 
       0            0    24600            0          140 
     100    12.758339    24600    2945.9128          140 
     200    25.595601    24600    11783.651          140 
     300    38.431884    24600    26513.215          140 
     400    51.328046    24600    47134.605          140 
     500    64.252231    24600     73647.82          140 
     600    77.095981    24600    106052.86          140 
     700    89.955533    24600    144349.73          140 
     800    102.81471    24600    188538.42          140 
     900    115.67355    24600    238618.94          140 
    1000    128.55241    24600    294591.28          140 
    1100    141.43591    24600    356455.45          140 
    1200    154.36981    24600    424211.44          140 
    1300    166.87213    24600    497859.26          140 
    1400    179.16932    24600    577398.91          140 
    1500    191.35865    24600    662830.38          140 
    1600    203.56832    24600    754153.68          140 
    1700    215.67601    24600     851368.8          140 
    1800    227.85408    24600    954361.77          140 
    1900    240.14562    24600    1053122.6          140 
    2000    252.61712    24600    1120021.9          140 
    2100    265.04186    24600    1129905.2          140 
    2200    277.50449    24600    1038862.1          140 
    2300    289.79085    24600    786919.38          140 
    2400    302.05146    24600    573962.05          140 
    2500    314.29248    24600    400058.83          140 
    2600    326.58407    24600     265084.5          140 
    2700    338.80755    24600    169252.55          140 
    2800    351.02723    24600    112356.42          140 
    2900    363.19305    24600    93591.798          140 
    3000    375.41914    24600    113589.21          140 
    3100    387.70409    24600    173495.44          140 
    3200    400.00153    24600     274171.3          140 
    3300    412.26046    24600    407845.86          140 
    3400    424.54189    24600    468087.04          140 
    3500    436.74417    24600    509641.34          140 
    3600    449.02551    24600    537696.69          140 
    3700    461.36206    24600    563654.89          140 
    3800    473.70677    24600    600185.93          140 
    3900    486.22395    24600    648889.48          140 
    4000     498.4889    24600    709121.17          140 
    4100    510.72835    24600    779704.44          140 
    4200    523.13327    24600    858378.25          140 
    4300    535.67998    24600    851384.81          140 
    4400    548.24238    24600    802905.93          140 
    4500    560.76732    24600    731394.53          140 
    4600     573.3477    24600    649708.59          140 
    4700      585.887    24600     569725.9          140 
    4800    598.42584    24600    495284.29          140 
    4900    610.87921    24600     426761.4          140 
    5000    623.49052    24600    364037.76          140 
Loop time of 623.491 on 1 procs for 5000 steps with 24600 atoms

99.6% CPU use with 1 MPI tasks x no OpenMP threads

MPI task timing breakdown:
Section |  min time  |  avg time  |  max time  |%varavg| %total
---------------------------------------------------------------
Pair    | 275.46     | 275.46     | 275.46     |   0.0 | 44.18
Neigh   | 0.1412     | 0.1412     | 0.1412     |   0.0 |  0.02
Comm    | 0.048517   | 0.048517   | 0.048517   |   0.0 |  0.01
Output  | 0.81553    | 0.81553    | 0.81553    |   0.0 |  0.13
Modify  | 346.46     | 346.46     | 346.46     |   0.0 | 55.57
Other   |            | 0.5625     |            |       |  0.09

Nlocal:    24600 ave 24600 max 24600 min
Histogram: 1 0 0 0 0 0 0 0 0 0
Nghost:    0 ave 0 max 0 min
Histogram: 1 0 0 0 0 0 0 0 0 0
Neighs:    1.34503e+06 ave 1.34503e+06 max 1.34503e+06 min
Histogram: 1 0 0 0 0 0 0 0 0 0

Total # of neighbors = 1345034
Ave neighs/atom = 54.6762
Neighbor list builds = 9
Dangerous builds = 0

include velocity.include
variable vo equal 2.00000000000000000000000000000000
velocity 1 set ${vo} NULL NULL
velocity 1 set 2 NULL NULL
velocity 2 set -${vo} NULL NULL
velocity 2 set -2 NULL NULL

run  15000
Per MPI rank memory allocation (min/avg/max) = 48.27 | 48.27 | 48.27 Mbytes
Step CPU Atoms KinEng Lx 
    5000            0    24600    1088338.1          140 
    5100    12.487703    24600    993399.78          140 
    5200    25.054789    24600    898902.77          140 
    5300    37.470311    24600    811008.73          140 
    5400    49.892276    24600    728775.98          140 
    5500    62.264311    24600    650362.76          140 
    5600    75.005205    24600    577587.39          140 
    5700    87.454195    24600     511692.6          140 
    5800    100.02142    24600    452341.28          140 
    5900    112.43771    24600    398714.58          140 
    6000    124.93144    24600    349561.64          140 
    6100    137.25763    24600    304927.68          140 
    6200    149.65331    24600    267840.24          140 
    6300    162.11409    24600     240185.8          140 
    6400    174.64502    24600     227570.3          140 
    6500    187.13728    24600    240798.22          140 
    6600    199.55606    24600    286926.41          140 
    6700    212.05834    24600    346601.29          140 
    6800    224.56029    24600    421823.66          140 
    6900    237.06839    24600    509181.62          140 
    7000    249.60572    24600    584087.75          140 
    7100    262.03101    24600    649758.61          140 
    7200    274.42648    24600    709590.75          140 
    7300    286.77525    24600    772272.95          140 
    7400     299.3009    24600    830091.37          140 
    7500    311.73994    24600    865338.32          140 
    7600    324.14653    24600    875622.65          140 
    7700    336.49321    24600    863081.98          140 
    7800    348.83495    24600    842302.24          140 
    7900    361.13016    24600     841505.3          140 
    8000    373.41071    24600     861121.9          140 
    8100    385.66933    24600    907076.13          140 
    8200    398.02017    24600    971316.88          140 
    8300    410.24638    24600      1048239          140 
    8400    422.45094    24600    1132209.8          140 
    8500    434.64468    24600    1214692.7          140 
    8600    446.91289    24600    1278481.4          140 
    8700    459.04922    24600    1316587.2          140 
    8800     471.2181    24600    1340580.5          140 
    8900    483.40365    24600    1326450.2          140 
    9000    495.63138    24600    1290600.7          140 
    9100    507.82346    24600    1236075.8          140 
    9200    520.02568    24600    1169956.7          140 
    9300    532.18855    24600    1098659.7          140 
    9400    544.35715    24600    1021508.9          140 
    9500     556.4376    24600    947513.92          140 
    9600    568.57975    24600    886350.33          140 
    9700     580.7313    24600    838799.65          140 
    9800    592.90055    24600    805092.48          140 
    9900    604.99961    24600     784926.4          140 
   10000    617.13339    24600     779212.4          140 
   10100    629.26877    24600    787653.83          140 
   10200    641.53952    24600    809563.99          140 
   10300    653.66459    24600    844107.05          140 
   10400    665.89534    24600    891993.18          140 
   10500    678.12152    24600    951906.61          140 
   10600    690.31541    24600    1005830.9          140 
   10700    702.54339    24600    1030484.2          140 
   10800    714.79912    24600    1025283.8          140 
   10900    727.06431    24600    1004744.2          140 
   11000    739.30428    24600    978392.81          140 
   11100    751.40021    24600    952970.93          140 
   11200    763.55632    24600     929761.2          140 
   11300    775.69618    24600    908423.29          140 
   11400     787.8802    24600    882431.49          140 
   11500    799.99702    24600    849577.32          140 
   11600    812.12835    24600    815415.99          140 
   11700    824.23537    24600    784982.33          140 
   11800    836.41363    24600    759955.82          140 
   11900    848.57344    24600    738941.56          140 
   12000    860.74671    24600    721729.01          140 
   12100    872.79116    24600    708416.25          140 
   12200    884.85435    24600    700468.37          140 
   12300    896.85232    24600    698444.44          140 
   12400    908.84705    24600    702413.07          140 
   12500    920.95421    24600    711532.81          140 
   12600    933.06557    24600    724070.79          140 
   12700    945.14996    24600    740474.99          140 
   12800    957.22536    24600    758348.14          140 
   12900    969.26979    24600    773176.65          140 
   13000    981.28992    24600     776739.4          140 
   13100    993.17976    24600    762890.06          140 
   13200    1005.0854    24600    726449.49          140 
   13300    1016.9752    24600    683797.15          140 
   13400    1028.9992    24600    651846.26          140 
   13500    1040.9857    24600     634756.3          140 
   13600    1052.9219    24600    632336.29          140 
   13700    1064.7927    24600    644382.69          140 
   13800    1076.6661    24600    669237.11          140 
   13900    1088.5767    24600    709066.99          140 
   14000     1100.511    24600    766929.09          140 
   14100    1112.4189    24600    840096.41          140 
   14200     1124.292    24600    916098.81          140 
   14300    1136.1032    24600    980449.11          140 
   14400    1147.9476    24600    1031895.7          140 
   14500    1159.7477    24600    1068082.7          140 
   14600    1171.6143    24600      1092708          140 
   14700    1183.5489    24600    1106897.9          140 
   14800    1195.4159    24600    1110504.4          140 
   14900    1207.3081    24600    1108735.4          140 
   15000    1219.1685    24600    1101020.8          140 
   15100    1231.2259    24600    1086800.9          140 
   15200    1243.2225    24600    1065691.6          140 
   15300    1255.0744    24600    1036402.3          140 
   15400     1266.979    24600    999625.96          140 
   15500    1278.8857    24600     955358.2          140 
   15600    1290.8649    24600    909782.46          140 
   15700    1302.8265    24600    865954.83          140 
   15800    1314.8015    24600    823173.13          140 
   15900    1326.7088    24600    780777.51          140 
   16000    1338.5887    24600    741865.12          140 
   16100    1350.3589    24600     710483.2          140 
   16200    1362.1955    24600    693649.27          140 
   16300    1373.9953    24600    693735.91          140 
   16400     1385.879    24600    710472.97          140 
   16500    1397.7164    24600    741137.65          140 
   16600    1409.5266    24600    777079.04          140 
   16700    1421.2764    24600    815590.26          140 
   16800    1432.9702    24600    856830.34          140 
   16900    1444.6788    24600    900791.07          140 
   17000    1456.3762    24600    944608.87          140 
   17100    1468.0904    24600    986294.81          140 
   17200    1479.8745    24600    1023708.1          140 
   17300    1491.6277    24600    1053539.5          140 
   17400    1503.4157    24600    1071160.7          140 
   17500    1515.1054    24600    1076686.2          140 
   17600     1526.706    24600    1073332.6          140 
   17700    1538.2758    24600    1065359.4          140 
   17800    1549.9995    24600    1052371.3          140 
   17900    1561.7095    24600    1033388.3          140 
   18000    1573.4155    24600    1010994.9          140 
   18100    1584.9315    24600    988665.79          140 
   18200    1596.4397    24600    967707.09          140 
   18300    1608.0372    24600     945401.4          140 
   18400     1619.646    24600    918732.11          140 
   18500    1631.1793    24600    885494.22          140 
   18600    1642.7378    24600    846894.14          140 
   18700    1654.2129    24600    810111.81          140 
   18800     1665.621    24600    777722.33          140 
   18900    1677.0933    24600    752450.05          140 
   19000    1688.7236    24600    733562.18          140 
   19100    1700.1146    24600    724698.73          140 
   19200    1711.5561    24600    726263.76          140 
   19300    1723.0176    24600    737753.13          140 
   19400    1734.4958    24600    755598.16          140 
   19500    1745.9022    24600    778236.83          140 
   19600    1757.3647    24600    801526.03          140 
   19700    1768.7664    24600    821019.89          140 
   19800    1780.1909    24600    832809.54          140 
   19900    1791.4938    24600    840804.61          140 
   20000    1802.9168    24600     846130.8          140 
Loop time of 1802.92 on 1 procs for 15000 steps with 24600 atoms

99.8% CPU use with 1 MPI tasks x no OpenMP threads

MPI task timing breakdown:
Section |  min time  |  avg time  |  max time  |%varavg| %total
---------------------------------------------------------------
Pair    | 770.93     | 770.93     | 770.93     |   0.0 | 42.76
Neigh   | 2.126      | 2.126      | 2.126      |   0.0 |  0.12
Comm    | 0.21115    | 0.21115    | 0.21115    |   0.0 |  0.01
Output  | 2.5868     | 2.5868     | 2.5868     |   0.0 |  0.14
Modify  | 1025.5     | 1025.5     | 1025.5     |   0.0 | 56.88
Other   |            | 1.595      |            |       |  0.09

Nlocal:    24600 ave 24600 max 24600 min
Histogram: 1 0 0 0 0 0 0 0 0 0
Nghost:    0 ave 0 max 0 min
Histogram: 1 0 0 0 0 0 0 0 0 0
Neighs:    1.26643e+06 ave 1.26643e+06 max 1.26643e+06 min
Histogram: 1 0 0 0 0 0 0 0 0 0

Total # of neighbors = 1266432
Ave neighs/atom = 51.481
Neighbor list builds = 105
Dangerous builds = 0

Please see the log.cite file for references relevant to this simulation

Total wall time: 0:40:29
