# vtk DataFile Version 3.0
DUMP output
ASCII
DATASET UNSTRUCTURED_GRID
POINTS 882 float
5.00000000 5.00000000 -3.00000000
5.00000000 5.00000000 0.00000000
5.00000000 6.05000000 -3.00000000
5.00000000 6.05000000 0.00000000
5.00000000 7.10000000 -3.00000000
5.00000000 7.10000000 0.00000000
5.00000000 8.15000000 -3.00000000
5.00000000 8.15000000 0.00000000
5.00000000 9.20000000 -3.00000000
5.00000000 9.20000000 0.00000000
5.00000000 10.25000000 -3.00000000
5.00000000 10.25000000 0.00000000
5.00000000 11.30000000 -3.00000000
5.00000000 11.30000000 0.00000000
5.00000000 12.35000000 -3.00000000
5.00000000 12.35000000 0.00000000
5.00000000 13.40000000 -3.00000000
5.00000000 13.40000000 0.00000000
5.00000000 14.45000000 -3.00000000
5.00000000 14.45000000 0.00000000
5.00000000 15.50000000 -3.00000000
5.00000000 15.50000000 0.00000000
5.00000000 16.55000000 -3.00000000
5.00000000 16.55000000 0.00000000
5.00000000 17.60000000 -3.00000000
5.00000000 17.60000000 0.00000000
5.00000000 18.65000000 -3.00000000
5.00000000 18.65000000 0.00000000
5.00000000 19.70000000 -3.00000000
5.00000000 19.70000000 0.00000000
5.00000000 20.75000000 -3.00000000
5.00000000 20.75000000 0.00000000
5.00000000 21.80000000 -3.00000000
5.00000000 21.80000000 0.00000000
5.00000000 22.85000000 -3.00000000
5.00000000 22.85000000 0.00000000
5.00000000 23.90000000 -3.00000000
5.00000000 23.90000000 0.00000000
5.00000000 24.95000000 -3.00000000
5.00000000 24.95000000 0.00000000
5.00000000 26.00000000 -3.00000000
5.00000000 26.00000000 0.00000000
6.25000000 5.00000000 -3.00000000
6.25000000 5.00000000 0.00000000
6.25000000 6.05000000 -3.00000000
6.25000000 6.05000000 0.00000000
6.25000000 7.10000000 -3.00000000
6.25000000 7.10000000 0.00000000
6.25000000 8.15000000 -3.00000000
6.25000000 8.15000000 0.00000000
6.25000000 9.20000000 -3.00000000
6.25000000 9.20000000 0.00000000
6.25000000 10.25000000 -3.00000000
6.25000000 10.25000000 0.00000000
6.25000000 11.30000000 -3.00000000
6.25000000 11.30000000 0.00000000
6.25000000 12.35000000 -3.00000000
6.25000000 12.35000000 0.00000000
6.25000000 13.40000000 -3.00000000
6.25000000 13.40000000 0.00000000
6.25000000 14.45000000 -3.00000000
6.25000000 14.45000000 0.00000000
6.25000000 15.50000000 -3.00000000
6.25000000 15.50000000 0.00000000
6.25000000 16.55000000 -3.00000000
6.25000000 16.55000000 0.00000000
6.25000000 17.60000000 -3.00000000
6.25000000 17.60000000 0.00000000
6.25000000 18.65000000 -3.00000000
6.25000000 18.65000000 0.00000000
6.25000000 19.70000000 -3.00000000
6.25000000 19.70000000 0.00000000
6.25000000 20.75000000 -3.00000000
6.25000000 20.75000000 0.00000000
6.25000000 21.80000000 -3.00000000
6.25000000 21.80000000 0.00000000
6.25000000 22.85000000 -3.00000000
6.25000000 22.85000000 0.00000000
6.25000000 23.90000000 -3.00000000
6.25000000 23.90000000 0.00000000
6.25000000 24.95000000 -3.00000000
6.25000000 24.95000000 0.00000000
6.25000000 26.00000000 -3.00000000
6.25000000 26.00000000 0.00000000
7.50000000 5.00000000 -3.00000000
7.50000000 5.00000000 0.00000000
7.50000000 6.05000000 -3.00000000
7.50000000 6.05000000 0.00000000
7.50000000 7.10000000 -3.00000000
7.50000000 7.10000000 0.00000000
7.50000000 8.15000000 -3.00000000
7.50000000 8.15000000 0.00000000
7.50000000 9.20000000 -3.00000000
7.50000000 9.20000000 0.00000000
7.50000000 10.25000000 -3.00000000
7.50000000 10.25000000 0.00000000
7.50000000 11.30000000 -3.00000000
7.50000000 11.30000000 0.00000000
7.50000000 12.35000000 -3.00000000
7.50000000 12.35000000 0.00000000
7.50000000 13.40000000 -3.00000000
7.50000000 13.40000000 0.00000000
7.50000000 14.45000000 -3.00000000
7.50000000 14.45000000 0.00000000
7.50000000 15.50000000 -3.00000000
7.50000000 15.50000000 0.00000000
7.50000000 16.55000000 -3.00000000
7.50000000 16.55000000 0.00000000
7.50000000 17.60000000 -3.00000000
7.50000000 17.60000000 0.00000000
7.50000000 18.65000000 -3.00000000
7.50000000 18.65000000 0.00000000
7.50000000 19.70000000 -3.00000000
7.50000000 19.70000000 0.00000000
7.50000000 20.75000000 -3.00000000
7.50000000 20.75000000 0.00000000
7.50000000 21.80000000 -3.00000000
7.50000000 21.80000000 0.00000000
7.50000000 22.85000000 -3.00000000
7.50000000 22.85000000 0.00000000
7.50000000 23.90000000 -3.00000000
7.50000000 23.90000000 0.00000000
7.50000000 24.95000000 -3.00000000
7.50000000 24.95000000 0.00000000
7.50000000 26.00000000 -3.00000000
7.50000000 26.00000000 0.00000000
8.75000000 5.00000000 -3.00000000
8.75000000 5.00000000 0.00000000
8.75000000 6.05000000 -3.00000000
8.75000000 6.05000000 0.00000000
8.75000000 7.10000000 -3.00000000
8.75000000 7.10000000 0.00000000
8.75000000 8.15000000 -3.00000000
8.75000000 8.15000000 0.00000000
8.75000000 9.20000000 -3.00000000
8.75000000 9.20000000 0.00000000
8.75000000 10.25000000 -3.00000000
8.75000000 10.25000000 0.00000000
8.75000000 11.30000000 -3.00000000
8.75000000 11.30000000 0.00000000
8.75000000 12.35000000 -3.00000000
8.75000000 12.35000000 0.00000000
8.75000000 13.40000000 -3.00000000
8.75000000 13.40000000 0.00000000
8.75000000 14.45000000 -3.00000000
8.75000000 14.45000000 0.00000000
8.75000000 15.50000000 -3.00000000
8.75000000 15.50000000 0.00000000
8.75000000 16.55000000 -3.00000000
8.75000000 16.55000000 0.00000000
8.75000000 17.60000000 -3.00000000
8.75000000 17.60000000 0.00000000
8.75000000 18.65000000 -3.00000000
8.75000000 18.65000000 0.00000000
8.75000000 19.70000000 -3.00000000
8.75000000 19.70000000 0.00000000
8.75000000 20.75000000 -3.00000000
8.75000000 20.75000000 0.00000000
8.75000000 21.80000000 -3.00000000
8.75000000 21.80000000 0.00000000
8.75000000 22.85000000 -3.00000000
8.75000000 22.85000000 0.00000000
8.75000000 23.90000000 -3.00000000
8.75000000 23.90000000 0.00000000
8.75000000 24.95000000 -3.00000000
8.75000000 24.95000000 0.00000000
8.75000000 26.00000000 -3.00000000
8.75000000 26.00000000 0.00000000
10.00000000 5.00000000 -3.00000000
10.00000000 5.00000000 0.00000000
10.00000000 6.05000000 -3.00000000
10.00000000 6.05000000 0.00000000
10.00000000 7.10000000 -3.00000000
10.00000000 7.10000000 0.00000000
10.00000000 8.15000000 -3.00000000
10.00000000 8.15000000 0.00000000
10.00000000 9.20000000 -3.00000000
10.00000000 9.20000000 0.00000000
10.00000000 10.25000000 -3.00000000
10.00000000 10.25000000 0.00000000
10.00000000 11.30000000 -3.00000000
10.00000000 11.30000000 0.00000000
10.00000000 12.35000000 -3.00000000
10.00000000 12.35000000 0.00000000
10.00000000 13.40000000 -3.00000000
10.00000000 13.40000000 0.00000000
10.00000000 14.45000000 -3.00000000
10.00000000 14.45000000 0.00000000
10.00000000 15.50000000 -3.00000000
10.00000000 15.50000000 0.00000000
10.00000000 16.55000000 -3.00000000
10.00000000 16.55000000 0.00000000
10.00000000 17.60000000 -3.00000000
10.00000000 17.60000000 0.00000000
10.00000000 18.65000000 -3.00000000
10.00000000 18.65000000 0.00000000
10.00000000 19.70000000 -3.00000000
10.00000000 19.70000000 0.00000000
10.00000000 20.75000000 -3.00000000
10.00000000 20.75000000 0.00000000
10.00000000 21.80000000 -3.00000000
10.00000000 21.80000000 0.00000000
10.00000000 22.85000000 -3.00000000
10.00000000 22.85000000 0.00000000
10.00000000 23.90000000 -3.00000000
10.00000000 23.90000000 0.00000000
10.00000000 24.95000000 -3.00000000
10.00000000 24.95000000 0.00000000
10.00000000 26.00000000 -3.00000000
10.00000000 26.00000000 0.00000000
11.25000000 5.00000000 -3.00000000
11.25000000 5.00000000 0.00000000
11.25000000 6.05000000 -3.00000000
11.25000000 6.05000000 0.00000000
11.25000000 7.10000000 -3.00000000
11.25000000 7.10000000 0.00000000
11.25000000 8.15000000 -3.00000000
11.25000000 8.15000000 0.00000000
11.25000000 9.20000000 -3.00000000
11.25000000 9.20000000 0.00000000
11.25000000 10.25000000 -3.00000000
11.25000000 10.25000000 0.00000000
11.25000000 11.30000000 -3.00000000
11.25000000 11.30000000 0.00000000
11.25000000 12.35000000 -3.00000000
11.25000000 12.35000000 0.00000000
11.25000000 13.40000000 -3.00000000
11.25000000 13.40000000 0.00000000
11.25000000 14.45000000 -3.00000000
11.25000000 14.45000000 0.00000000
11.25000000 15.50000000 -3.00000000
11.25000000 15.50000000 0.00000000
11.25000000 16.55000000 -3.00000000
11.25000000 16.55000000 0.00000000
11.25000000 17.60000000 -3.00000000
11.25000000 17.60000000 0.00000000
11.25000000 18.65000000 -3.00000000
11.25000000 18.65000000 0.00000000
11.25000000 19.70000000 -3.00000000
11.25000000 19.70000000 0.00000000
11.25000000 20.75000000 -3.00000000
11.25000000 20.75000000 0.00000000
11.25000000 21.80000000 -3.00000000
11.25000000 21.80000000 0.00000000
11.25000000 22.85000000 -3.00000000
11.25000000 22.85000000 0.00000000
11.25000000 23.90000000 -3.00000000
11.25000000 23.90000000 0.00000000
11.25000000 24.95000000 -3.00000000
11.25000000 24.95000000 0.00000000
11.25000000 26.00000000 -3.00000000
11.25000000 26.00000000 0.00000000
12.50000000 5.00000000 -3.00000000
12.50000000 5.00000000 0.00000000
12.50000000 6.05000000 -3.00000000
12.50000000 6.05000000 0.00000000
12.50000000 7.10000000 -3.00000000
12.50000000 7.10000000 0.00000000
12.50000000 8.15000000 -3.00000000
12.50000000 8.15000000 0.00000000
12.50000000 9.20000000 -3.00000000
12.50000000 9.20000000 0.00000000
12.50000000 10.25000000 -3.00000000
12.50000000 10.25000000 0.00000000
12.50000000 11.30000000 -3.00000000
12.50000000 11.30000000 0.00000000
12.50000000 12.35000000 -3.00000000
12.50000000 12.35000000 0.00000000
12.50000000 13.40000000 -3.00000000
12.50000000 13.40000000 0.00000000
12.50000000 14.45000000 -3.00000000
12.50000000 14.45000000 0.00000000
12.50000000 15.50000000 -3.00000000
12.50000000 15.50000000 0.00000000
12.50000000 16.55000000 -3.00000000
12.50000000 16.55000000 0.00000000
12.50000000 17.60000000 -3.00000000
12.50000000 17.60000000 0.00000000
12.50000000 18.65000000 -3.00000000
12.50000000 18.65000000 0.00000000
12.50000000 19.70000000 -3.00000000
12.50000000 19.70000000 0.00000000
12.50000000 20.75000000 -3.00000000
12.50000000 20.75000000 0.00000000
12.50000000 21.80000000 -3.00000000
[...]
POINT_DATA 882
SCALARS density float 1
LOOKUP_TABLE default
899.99938255
900.00130161
900.00077030
900.00024884
900.00050673
899.99894109
899.99772534
900.00038538
900.00045637
900.00115058
900.00038286
900.00233557
900.00068396
900.00010847
899.99863601
900.00052026
900.00085571
900.00013553
900.00001088
900.00039397
900.00106599
900.00039053
900.00098046
899.99896100
899.99907863
899.99841798
899.99968382
900.00023825
899.99883078
900.00001174
900.00070454
899.99990796
900.00076936
900.00066291
900.00109901
900.00054223
900.00136110
900.00040947
900.00038436
899.99946141
899.99840076
900.00043301
900.00135294
900.00042988
900.00094339
899.99900690
900.00013132
900.00142265
900.00121460
899.99917590
900.00006497
900.00031276
900.00138554
899.99902383
899.99968556
900.00012310
899.99958156
899.99779169
899.99942148
899.99980769
900.00023724
899.99944293
899.99963977
899.99817206
900.00114467
899.99963977
900.00045672
900.00025718
899.99834984
900.00142671
899.99860629
900.00225544
899.99835531
899.99947641
900.00019012
900.00212856
899.99837609
899.99876989
900.00166390
899.99914663
899.99974101
900.00061664
899.99998596
899.99919408
899.99941947
900.00030821
900.00026242
900.00044095
899.99901963
899.99729332
900.00039552
900.00089449
900.00008391
899.99957167
900.00159499
900.00145013
899.99906505
900.00067141
899.99948772
900.00072868
899.99990027
900.00135023
900.00093535
900.00061833
900.00012958
900.00050979
900.00099212
900.00025755
900.00038513
899.99945115
900.00002388
899.99890727
900.00052863
899.99932855
900.00082646
899.99907505
900.00122302
900.00133716
899.99850896
900.00029384
899.99977389
900.00093692
899.99970582
899.99941417
900.00099554
900.00009775
899.99849314
900.00000118
900.00036962
900.00018946
900.00112014
899.99904667
900.00085519
899.99943624
899.99915482
899.99984480
899.99910304
900.00182671
900.00044048
899.99914568
900.00103874
900.00020201
900.00082653
900.00051101
899.99926371
900.00055689
899.99914968
900.00014293
900.00231158
899.99737169
899.99861173
899.99923446
899.99976784
900.00015828
900.00040383
899.99820329
900.00067132
900.00088389
899.99943781
899.99964814
900.00067171
899.99844218
900.00034986
900.00081598
900.00093985
899.99893280
900.00099070
900.00013516
900.00023161
899.99797877
899.99786350
899.99943044
899.99926066
899.99997246
899.99963007
900.00045896
900.00010988
900.00006174
899.99852678
900.00156445
900.00168538
899.99893730
900.00039362
900.00034362
899.99917111
899.99971400
900.00117492
900.00276650
900.00048117
900.00061100
900.00035946
899.99857107
899.99851898
899.99780920
899.99988210
900.00099248
899.99995006
900.00008752
900.00053823
899.99981837
899.99936449
900.00111230
900.00036004
900.00119728
899.99868731
900.00209127
900.00085170
899.99817396
900.00028637
899.99892846
899.99937992
900.00048610
900.00116196
900.00180931
899.99967771
899.99910213
899.99810385
899.99808956
899.99856201
900.00169335
900.00021977
900.00165685
900.00000031
899.99843066
900.00103272
900.00017840
899.99944998
900.00032579
899.99865598
900.00100725
899.99989922
900.00118323
899.99989200
900.00056408
900.00074844
900.00028351
900.00005164
900.00069286
900.00022487
899.99823172
899.99947937
899.99919500
899.99928769
899.99921204
900.00181464
900.00032385
900.00062985
900.00154083
900.00004086
899.99949507
899.99977707
899.99895213
899.99927110
899.99779038
899.99969994
900.00105085
899.99934484
899.99973499
900.00118650
900.00130063
899.99901248
899.99962475
900.00021724
899.99812140
900.00276851
900.00083198
899.99873255
899.99998007
900.00038351
900.00131229
900.00045118
899.99759826
899.99950973
900.00082825
899.99834144
899.99937456
899.99955838
900.00030653
900.00202264
899.99881110
900.00016113
899.99964754
899.99981277
899.99941321
899.99736064
900.00151272
899.99951065
900.00016206
900.00056793
899.99959068
900.00063206
899.99868023
899.99911826
899.99971001
899.99995115
899.99926558
899.99988962
899.99984627
899.99985151
899.99778665
899.99875659
900.00037303
900.00043482
900.00112777
900.00063426
900.00077811
900.00105863
899.99928236
900.00107128
900.00004037
900.00008197
899.99967114
900.00009077
899.99996361
899.99994331
900.00013839
900.00087893
900.00009409
900.00129881
899.99848726
900.00075011
899.99976941
900.00185380
900.00090140
899.99947402
900.00160974
900.00053619
899.99865638
900.00143408
899.99968508
900.00096929
899.99962641
899.99968885
900.00019271
900.00084581
899.99953652
899.99958648
900.00062517
899.99916161
900.00137787
900.00167347
899.99994625
899.99870419
900.00050591
900.00139126
900.00000201
899.99925978
899.99889659
900.00033450
900.00144665
900.00069408
899.99903755
900.00016473
899.99900548
899.99804474
899.99902375
900.00032555
900.00061118
899.99988668
900.00166425
899.99850369
900.00042790
899.99986500
899.99997742
899.99915436
900.00054028
899.99849863
899.99972552
900.00219165
900.00064408
899.99953375
900.00019087
899.99968245
900.00041835
899.99883340
899.99884101
900.00034420
899.99957037
900.00063766
899.99897163
900.00134534
899.99993995
899.99759312
899.99955706
900.00119089
899.99974773
900.00050352
899.99986830
900.00018942
900.00094006
900.00055668
899.99972727
900.00119636
899.99862142
899.99943325
899.99997239
900.00241619
899.99929425
900.00150275
900.00077452
899.99683247
899.99918036
899.99946105
900.00011185
900.00049131
900.00091402
899.99895229
900.00052839
899.99958798
900.00035809
900.00018012
899.99838588
899.99970897
899.99782822
899.99818241
900.00033421
899.99868056
900.00016593
900.00140852
900.00134347
899.99887542
900.00027208
900.00030958
899.99978423
900.00104258
899.99980243
899.99834466
899.99976295
900.00322329
900.00103496
900.00024361
900.00053571
900.00044083
900.00215473
900.00090912
899.99906548
900.00075603
900.00094567
900.00062877
900.00088895
899.99986506
899.99967657
900.00186746
900.00158196
899.99941248
899.99855474
899.99973061
900.00111347
900.00054336
899.99939244
900.00032536
900.00023038
899.99935885
899.99976042
899.99943979
900.00106305
899.99989742
899.99957050
900.00112932
899.99911749
899.99982067
899.99919176
899.99943185
899.99926669
899.99982287
900.00095068
899.99910108
899.99934166
899.99872231
900.00064299
900.00123110
899.99817888
900.00008870
900.00013814
899.99842695
900.00247679
899.99906383
899.99767026
899.99944995
899.99898246
899.99882898
900.00148384
900.00051633
900.00149348
899.99956820
900.00016727
900.00173049
899.99768262
900.00179151
899.99889402
899.99951626
899.99994955
899.99912211
899.99917547
899.99936458
899.99921783
900.00010314
900.00053101
899.99943826
899.99996991
900.00106001
899.99925343
899.99919001
900.00024427
899.99953535
900.00124609
899.99986277
899.99933807
900.00062099
899.99963902
899.99992053
900.00002701
900.00056081
900.00090097
899.99916581
900.00230932
900.00121224
899.99944509
900.00024292
899.99966542
900.00139546
900.00032425
900.00071088
900.00129500
899.99938291
899.99985133
900.00063611
900.00068736
900.00112167
900.00031834
900.00179398
899.99859124
899.99973099
900.00058919
900.00052140
900.00057746
900.00159182
900.00032464
899.99838641
900.00052867
900.00031046
900.00142138
899.99998049
900.00052266
899.99890472
900.00107860
899.99874665
900.00014236
899.99979724
900.00044967
899.99813909
900.00164291
900.00031841
900.00130019
899.99929158
899.99952451
900.00046126
899.99990839
899.99979119
899.99980279
900.00017190
900.00000163
899.99865616
899.99909004
900.00142137
900.00067916
900.00019327
899.99957844
900.00098845
900.00066613
900.00081221
899.99926181
900.00078414
899.99998216
900.00054070
899.99817711
899.99935206
899.99988302
900.00091770
899.99861285
900.00203701
900.00004614
899.99954799
899.99927383
900.00172080
899.99964681
899.99955039
900.00013325
900.00069536
899.99883994
899.99929403
899.99877654
900.00044037
899.99892590
899.99920009
899.99962470
899.99876997
900.00036055
900.00135871
899.99655225
900.00019300
899.99955462
900.00090215
900.00046789
899.99857954
900.00062488
899.99969027
899.99857234
900.00102440
900.00019625
900.00018151
900.00153565
900.00102937
899.99904415
899.99997044
899.99955393
900.00021975
900.00218144
899.99962951
899.99915735
899.99988690
899.99723974
900.00003936
899.99976338
900.00152907
900.00009931
900.00084766
899.99988894
899.99925996
900.00151968
899.99929468
899.99749825
900.00160351
900.00108995
900.00085437
900.00009860
900.00103494
900.00072698
899.99946434
899.99934466
899.99925295
899.99975481
900.00018004
900.00077587
900.00027977
899.99923518
899.99881471
900.00117169
900.00030213
899.99911807
900.00007873
899.99930508
899.99992354
899.99929869
900.00169382
900.00010973
900.00036285
899.99954775
899.99924950
900.00089664
899.99908378
899.99869965
900.00155962
900.00139708
900.00119853
899.99929159
900.00056143
900.00099393
900.00013107
900.00013018
899.99896167
899.99947776
899.99763986
900.00064258
899.99902189
900.00027330
899.99976812
899.99897580
899.99902647
900.00022533
899.99938333
899.99986527
900.00060996
900.00006461
899.99717768
899.99933748
900.00285844
900.00081145
900.00021309
899.99994464
900.00142422
899.99942129
899.99960261
899.99978213
899.99902565
900.00112723
899.99958168
900.00117106
899.99997145
899.99813227
899.99906948
900.00023602
900.00078527
899.99902770
900.00047303
900.00140975
900.00298036
899.99970170
900.00016247
899.99882369
899.99966764
900.00110860
899.99798494
899.99991452
900.00168826
900.00060938
899.99990884
900.00214551
899.99992394
899.99907410
900.00112540
899.99854860
899.99900995
899.99963553
900.00169066
899.99955867
899.99911667
899.99921074
900.00037760
899.99981199
900.00021740
899.99824877
900.00018570
899.99975340
900.00151099
899.99926926
900.00153691
899.99954771
899.99951479
899.99929268
899.99981498
900.00104008
900.00034849
899.99932855
900.00121975
899.99912077
900.00195744
899.99941554
899.99955095
900.00142509
899.99966000
899.99988502
899.99967055
899.99993894
900.00062994
899.99865184
899.99856050
899.99851687
900.00117431
900.00022649
899.99978609
900.00023378
899.99840548
899.99961002
899.99866115
899.99970293
899.99971762
899.99935657
900.00091994
900.00048138
900.00037566
899.99918029
900.00007384
900.00054219
900.00073596
899.99948913
899.99918566
900.00027550
900.00068508
900.00014507
899.99965031
900.00033918
899.99959196
900.00019294
900.00091663
900.00003308
899.99893858
899.99969318
900.00048600
899.99924300
900.00023604
900.00123700
900.00005079
900.00079389
899.99881666
899.99951969
900.00212423
899.99977018
900.00008794
900.00148348
899.99943890
899.99964522
899.99794388
899.99877859
900.00351151
900.00030155
899.99919173
900.00035278
900.00168886
900.00123351
900.00129375
900.00201058
900.00002017
899.99967675
900.00147720
900.00017694
899.99998294
899.99929289
900.00161468
900.00042834
899.99801718
900.00033543
900.00063731
900.00032131
900.00045867
899.99827465
900.00086388
900.00108429
900.00027871
899.99838170
899.99872834
899.99875665
899.99927113
899.99899521
899.99973445
899.99969477
900.00001608
900.00129452
900.00013282
900.00047989
900.00094039
900.00170908
900.00124460
900.00068236
899.99855170
900.00082839
900.00007679
900.00135065
900.00078773
899.99961717
900.00093916
900.00063521
899.99789592
900.00069214
899.99978735
899.99925023
899.99808025
899.99928248
899.99961764
899.99895073
900.00001829
900.00051625
899.99850319
899.99985773
900.00066656
900.00033761
899.99807209
899.99882888
899.99929097
899.99998540
900.00050343
899.99948105
899.99796159
899.99918674
900.00161504
899.99932353
899.99859348
899.99949602
900.00017310
900.00136622
900.00079462
900.00075005
