atom_style  sphere
dimension   2
units       si

###############################################
# Size, contact parameters
###############################################

variable    kn equal 1e6
variable    damp equal 0.0
variable    coeffFric equal 0.3
variable    kt equal 0.5*${kn}
variable    kt equal 0.5*1000000
variable    rad equal 5000

variable    omega equal 0.5*10^(-3)
variable    lambda equal 8.0*10^5

variable    airDensity equal 1.225
variable    waterDensity equal 1017.0
variable    windDragCoefficient equal 0.015
variable    oceanDragCoefficient equal 0.0045

###############################################
# Geometry-related parameters
###############################################

variable    lx equal  500000
variable    ly equal  ${lx}*1.5
variable    ly equal  500000*1.5
variable    ly2 equal ${lx}
variable    ly2 equal 500000

###############################################
# Create box
###############################################
boundary    f f p

variable    x0 equal 0
variable    x1 equal ${lx}
variable    x1 equal 500000
variable    y0 equal 0
variable    y1 equal ${ly}
variable    y1 equal 750000
region      boxreg block ${x0} ${x1} ${y0} ${y1} -${rad} ${rad} units box
region      boxreg block 0 ${x1} ${y0} ${y1} -${rad} ${rad} units box
region      boxreg block 0 500000 ${y0} ${y1} -${rad} ${rad} units box
region      boxreg block 0 500000 0 ${y1} -${rad} ${rad} units box
region      boxreg block 0 500000 0 750000 -${rad} ${rad} units box
region      boxreg block 0 500000 0 750000 -5000 ${rad} units box
region      boxreg block 0 500000 0 750000 -5000 5000 units box
create_box  1 boxreg
Created orthogonal box = (0 0 -5000) to (500000 750000 5000)
  1 by 1 by 1 MPI processor grid

###############################################
# Simulation Initialization Includes
###############################################

include     in.include.atoms
###################
# Atom Parameters #
###################

variable minmass equal 176775514.927150
variable diam equal 13416.174886
create_atoms 1 single 174462.231116 711961.961962 0.000000
Created 1 atoms
  Time spent = 2.09808e-05 secs
create_atoms 1 single 363931.965983 606856.856857 0.000000
Created 1 atoms
  Time spent = 0.000398159 secs
create_atoms 1 single 473111.555778 658033.033033 0.000000
Created 1 atoms
  Time spent = 9.53674e-07 secs
create_atoms 1 single 340920.460230 722472.472472 0.000000
Created 1 atoms
  Time spent = 9.53674e-07 secs
create_atoms 1 single 412956.478239 695195.195195 0.000000
Created 1 atoms
  Time spent = 0 secs
create_atoms 1 single 256003.001501 558308.308308 0.000000
Created 1 atoms
  Time spent = 9.53674e-07 secs
create_atoms 1 single 276513.256628 706331.331331 0.000000
Created 1 atoms
  Time spent = 9.53674e-07 secs
create_atoms 1 single 481615.807904 685310.310310 0.000000
Created 1 atoms
  Time spent = 1.19209e-06 secs
create_atoms 1 single 338419.209605 637637.637638 0.000000
Created 1 atoms
  Time spent = 9.53674e-07 secs
create_atoms 1 single 359679.839920 727352.352352 0.000000
Created 1 atoms
  Time spent = 0 secs
create_atoms 1 single 368184.092046 509509.509510 0.000000
Created 1 atoms
  Time spent = 0 secs
create_atoms 1 single 421085.542771 608108.108108 0.000000
Created 1 atoms
  Time spent = 9.53674e-07 secs
create_atoms 1 single 360430.215108 707332.332332 0.000000
Created 1 atoms
  Time spent = 0 secs
create_atoms 1 single 246623.311656 690440.440440 0.000000
Created 1 atoms
  Time spent = 9.53674e-07 secs
create_atoms 1 single 280390.195098 584459.459459 0.000000
Created 1 atoms
  Time spent = 0 secs
create_atoms 1 single 42771.385693 687812.812813 0.000000
Created 1 atoms
  Time spent = 9.53674e-07 secs
create_atoms 1 single 372436.218109 587462.462462 0.000000
Created 1 atoms
  Time spent = 9.53674e-07 secs
create_atoms 1 single 160080.040020 539914.914915 0.000000
Created 1 atoms
  Time spent = 9.53674e-07 secs
create_atoms 1 single 218359.179590 610235.235235 0.000000
Created 1 atoms
  Time spent = 0 secs
create_atoms 1 single 438844.422211 677052.052052 0.000000
Created 1 atoms
  Time spent = 9.53674e-07 secs
create_atoms 1 single 88544.272136 534159.159159 0.000000
Created 1 atoms
  Time spent = 9.53674e-07 secs
create_atoms 1 single 430340.170085 518643.643644 0.000000
Created 1 atoms
  Time spent = 9.53674e-07 secs
create_atoms 1 single 98674.337169 703578.578579 0.000000
Created 1 atoms
  Time spent = 9.53674e-07 secs
create_atoms 1 single 376688.344172 623623.623624 0.000000
Created 1 atoms
  Time spent = 0 secs
create_atoms 1 single 411080.540270 559559.559560 0.000000
Created 1 atoms
  Time spent = 0 secs
create_atoms 1 single 375062.531266 650900.900901 0.000000
Created 1 atoms
  Time spent = 1.19209e-06 secs
create_atoms 1 single 373561.780890 535410.410410 0.000000
Created 1 atoms
  Time spent = 9.53674e-07 secs
create_atoms 1 single 264507.253627 739489.489489 0.000000
Created 1 atoms
  Time spent = 0 secs
create_atoms 1 single 46148.074037 668793.793794 0.000000
Created 1 atoms
  Time spent = 9.53674e-07 secs
create_atoms 1 single 328414.207104 604979.979980 0.000000
Created 1 atoms
  Time spent = 0 secs
create_atoms 1 single 205477.738869 719844.844845 0.000000
Created 1 atoms
  Time spent = 9.53674e-07 secs
create_atoms 1 single 203226.613307 537037.037037 0.000000
Created 1 atoms
  Time spent = 9.53674e-07 secs
create_atoms 1 single 277013.506753 639764.764765 0.000000
Created 1 atoms
  Time spent = 9.53674e-07 secs
create_atoms 1 single 255252.626313 709334.334334 0.000000
Created 1 atoms
  Time spent = 0 secs
create_atoms 1 single 435342.671336 603603.603604 0.000000
Created 1 atoms
  Time spent = 1.19209e-06 secs
create_atoms 1 single 330290.145073 624124.124124 0.000000
Created 1 atoms
  Time spent = 1.19209e-06 secs
create_atoms 1 single 334917.458729 742992.992993 0.000000
Created 1 atoms
  Time spent = 9.53674e-07 secs
create_atoms 1 single 404327.163582 637512.512513 0.000000
Created 1 atoms
  Time spent = 9.53674e-07 secs
create_atoms 1 single 100425.212606 623498.498498 0.000000
Created 1 atoms
  Time spent = 9.53674e-07 secs
create_atoms 1 single 114557.278639 665165.165165 0.000000
Created 1 atoms
  Time spent = 0 secs
create_atoms 1 single 358179.089545 555555.555556 0.000000
Created 1 atoms
  Time spent = 9.53674e-07 secs
create_atoms 1 single 103176.588294 521521.521522 0.000000
Created 1 atoms
  Time spent = 1.19209e-06 secs
create_atoms 1 single 307653.826913 673423.423423 0.000000
Created 1 atoms
  Time spent = 0 secs
create_atoms 1 single 492996.498249 581331.331331 0.000000
Created 1 atoms
  Time spent = 9.53674e-07 secs
create_atoms 1 single 110930.465233 612112.112112 0.000000
Created 1 atoms
  Time spent = 9.53674e-07 secs
create_atoms 1 single 290020.010005 572822.822823 0.000000
Created 1 atoms
  Time spent = 0 secs
create_atoms 1 single 234867.433717 705830.830831 0.000000
Created 1 atoms
  Time spent = 9.53674e-07 secs
create_atoms 1 single 467233.616808 688438.438438 0.000000
Created 1 atoms
  Time spent = 9.53674e-07 secs
create_atoms 1 single 135317.658829 685185.185185 0.000000
Created 1 atoms
  Time spent = 1.19209e-06 secs
create_atoms 1 single 200225.112556 615865.865866 0.000000
Created 1 atoms
  Time spent = 9.53674e-07 secs
create_atoms 1 single 13381.690845 705205.205205 0.000000
Created 1 atoms
  Time spent = 1.19209e-06 secs
create_atoms 1 single 201850.925463 697322.322322 0.000000
Created 1 atoms
  Time spent = 9.53674e-07 secs
create_atoms 1 single 413206.603302 580955.955956 0.000000
Created 1 atoms
  Time spent = 9.53674e-07 secs
create_atoms 1 single 392821.410705 625250.250250 0.000000
Created 1 atoms
  Time spent = 0 secs
create_atoms 1 single 416833.416708 667417.417417 0.000000
Created 1 atoms
  Time spent = 9.53674e-07 secs
create_atoms 1 single 123311.655828 529279.279279 0.000000
Created 1 atoms
  Time spent = 9.53674e-07 secs
create_atoms 1 single 24887.443722 700700.700701 0.000000
Created 1 atoms
  Time spent = 9.53674e-07 secs
create_atoms 1 single 318784.392196 686311.311311 0.000000
Created 1 atoms
  Time spent = 9.53674e-07 secs
create_atoms 1 single 391445.722861 672672.672673 0.000000
Created 1 atoms
  Time spent = 9.53674e-07 secs
create_atoms 1 single 431340.670335 582582.582583 0.000000
Created 1 atoms
  Time spent = 9.53674e-07 secs
create_atoms 1 single 473736.868434 548298.298298 0.000000
Created 1 atoms
  Time spent = 9.53674e-07 secs
create_atoms 1 single 116183.091546 701826.826827 0.000000
Created 1 atoms
  Time spent = 0 secs
create_atoms 1 single 73786.893447 580830.830831 0.000000
Created 1 atoms
  Time spent = 9.53674e-07 secs
create_atoms 1 single 458979.489745 512512.512513 0.000000
Created 1 atoms
  Time spent = 9.53674e-07 secs
create_atoms 1 single 143321.660830 637637.637638 0.000000
Created 1 atoms
  Time spent = 9.53674e-07 secs
create_atoms 1 single 218484.242121 589339.339339 0.000000
Created 1 atoms
  Time spent = 0 secs
create_atoms 1 single 419959.979990 546421.421421 0.000000
Created 1 atoms
  Time spent = 9.53674e-07 secs
create_atoms 1 single 61030.515258 666416.416416 0.000000
Created 1 atoms
  Time spent = 9.53674e-07 secs
create_atoms 1 single 319784.892446 541291.291291 0.000000
Created 1 atoms
  Time spent = 9.53674e-07 secs
create_atoms 1 single 225987.993997 641391.391391 0.000000
Created 1 atoms
  Time spent = 9.53674e-07 secs
create_atoms 1 single 189844.922461 582457.457457 0.000000
Created 1 atoms
  Time spent = 9.53674e-07 secs
create_atoms 1 single 32391.195598 714464.464464 0.000000
Created 1 atoms
  Time spent = 9.53674e-07 secs
create_atoms 1 single 63656.828414 681806.806807 0.000000
Created 1 atoms
  Time spent = 9.53674e-07 secs
create_atoms 1 single 232741.370685 630630.630631 0.000000
Created 1 atoms
  Time spent = 9.53674e-07 secs
create_atoms 1 single 386068.034017 556806.806807 0.000000
Created 1 atoms
  Time spent = 9.53674e-07 secs
create_atoms 1 single 236368.184092 561186.186186 0.000000
Created 1 atoms
  Time spent = 9.53674e-07 secs
create_atoms 1 single 138069.034517 720220.220220 0.000000
Created 1 atoms
  Time spent = 9.53674e-07 secs
create_atoms 1 single 74287.143572 633508.508509 0.000000
Created 1 atoms
  Time spent = 9.53674e-07 secs
create_atoms 1 single 108804.402201 741616.616617 0.000000
Created 1 atoms
  Time spent = 9.53674e-07 secs
create_atoms 1 single 187343.671836 566316.316316 0.000000
Created 1 atoms
  Time spent = 9.53674e-07 secs
create_atoms 1 single 443221.610805 656281.281281 0.000000
Created 1 atoms
  Time spent = 9.53674e-07 secs
create_atoms 1 single 375312.656328 677677.677678 0.000000
Created 1 atoms
  Time spent = 9.53674e-07 secs
create_atoms 1 single 5627.813907 544419.419419 0.000000
Created 1 atoms
  Time spent = 9.53674e-07 secs
create_atoms 1 single 485867.933967 526401.401401 0.000000
Created 1 atoms
  Time spent = 9.53674e-07 secs
create_atoms 1 single 489744.872436 607232.232232 0.000000
Created 1 atoms
  Time spent = 9.53674e-07 secs
create_atoms 1 single 164707.353677 738488.488488 0.000000
Created 1 atoms
  Time spent = 9.53674e-07 secs
create_atoms 1 single 68409.204602 720220.220220 0.000000
Created 1 atoms
  Time spent = 0 secs
create_atoms 1 single 137318.659330 612987.987988 0.000000
Created 1 atoms
  Time spent = 9.53674e-07 secs
create_atoms 1 single 487868.934467 539289.289289 0.000000
Created 1 atoms
  Time spent = 0 secs
create_atoms 1 single 488244.122061 568193.193193 0.000000
Created 1 atoms
  Time spent = 1.19209e-06 secs
create_atoms 1 single 309904.952476 653153.153153 0.000000
Created 1 atoms
  Time spent = 0 secs
create_atoms 1 single 382691.345673 603603.603604 0.000000
Created 1 atoms
  Time spent = 1.19209e-06 secs
create_atoms 1 single 383441.720860 579954.954955 0.000000
Created 1 atoms
  Time spent = 9.53674e-07 secs
create_atoms 1 single 478864.432216 573448.448448 0.000000
Created 1 atoms
  Time spent = 1.19209e-06 secs
create_atoms 1 single 371935.967984 555555.555556 0.000000
Created 1 atoms
  Time spent = 0 secs
create_atoms 1 single 43146.573287 542542.542543 0.000000
Created 1 atoms
  Time spent = 9.53674e-07 secs
create_atoms 1 single 122561.280640 505505.505506 0.000000
Created 1 atoms
  Time spent = 9.53674e-07 secs
create_atoms 1 single 65782.891446 527277.277277 0.000000
Created 1 atoms
  Time spent = 9.53674e-07 secs
create_atoms 1 single 414957.478739 528028.028028 0.000000
Created 1 atoms
  Time spent = 9.53674e-07 secs
create_atoms 1 single 313031.515758 729479.479479 0.000000
Created 1 atoms
  Time spent = 9.53674e-07 secs
create_atoms 1 single 269759.879940 549799.799800 0.000000
Created 1 atoms
  Time spent = 9.53674e-07 secs
create_atoms 1 single 114807.403702 651526.526527 0.000000
Created 1 atoms
  Time spent = 9.53674e-07 secs
create_atoms 1 single 8379.189595 728228.228228 0.000000
Created 1 atoms
  Time spent = 9.53674e-07 secs
create_atoms 1 single 12131.065533 564064.064064 0.000000
Created 1 atoms
  Time spent = 9.53674e-07 secs
create_atoms 1 single 317408.704352 621371.371371 0.000000
Created 1 atoms
  Time spent = 9.53674e-07 secs
create_atoms 1 single 154077.038519 733858.858859 0.000000
Created 1 atoms
  Time spent = 9.53674e-07 secs
create_atoms 1 single 450100.050025 636261.261261 0.000000
Created 1 atoms
  Time spent = 9.53674e-07 secs
create_atoms 1 single 415332.666333 624499.499499 0.000000
Created 1 atoms
  Time spent = 9.53674e-07 secs
create_atoms 1 single 107678.839420 679054.054054 0.000000
Created 1 atoms
  Time spent = 9.53674e-07 secs
create_atoms 1 single 223611.805903 686811.811812 0.000000
Created 1 atoms
  Time spent = 1.19209e-06 secs
create_atoms 1 single 316033.016508 566691.691692 0.000000
Created 1 atoms
  Time spent = 9.53674e-07 secs
create_atoms 1 single 103426.713357 640765.765766 0.000000
Created 1 atoms
  Time spent = 1.19209e-06 secs
create_atoms 1 single 485242.621311 619494.494494 0.000000
Created 1 atoms
  Time spent = 1.19209e-06 secs
create_atoms 1 single 370935.467734 734109.109109 0.000000
Created 1 atoms
  Time spent = 9.53674e-07 secs
create_atoms 1 single 241370.685343 718718.718719 0.000000
Created 1 atoms
  Time spent = 1.19209e-06 secs
create_atoms 1 single 62656.328164 614364.364364 0.000000
Created 1 atoms
  Time spent = 9.53674e-07 secs
create_atoms 1 single 6628.314157 632882.882883 0.000000
Created 1 atoms
  Time spent = 1.19209e-06 secs
create_atoms 1 single 276638.319160 689564.564565 0.000000
Created 1 atoms
  Time spent = 9.53674e-07 secs
create_atoms 1 single 336293.146573 529779.779780 0.000000
Created 1 atoms
  Time spent = 1.19209e-06 secs
create_atoms 1 single 306528.264132 599974.974975 0.000000
Created 1 atoms
  Time spent = 9.53674e-07 secs
create_atoms 1 single 319784.892446 713588.588589 0.000000
Created 1 atoms
  Time spent = 9.53674e-07 secs
create_atoms 1 single 442971.485743 524024.024024 0.000000
Created 1 atoms
  Time spent = 9.53674e-07 secs
create_atoms 1 single 295147.573787 553303.303303 0.000000
Created 1 atoms
  Time spent = 1.19209e-06 secs
create_atoms 1 single 299524.762381 737737.737738 0.000000
Created 1 atoms
  Time spent = 9.53674e-07 secs
create_atoms 1 single 160830.415208 562687.687688 0.000000
Created 1 atoms
  Time spent = 9.53674e-07 secs
create_atoms 1 single 376313.156578 568443.443443 0.000000
Created 1 atoms
  Time spent = 9.53674e-07 secs
create_atoms 1 single 165332.666333 687812.812813 0.000000
Created 1 atoms
  Time spent = 9.53674e-07 secs
create_atoms 1 single 8629.314657 691691.691692 0.000000
Created 1 atoms
  Time spent = 9.53674e-07 secs
create_atoms 1 single 292771.385693 720845.845846 0.000000
Created 1 atoms
  Time spent = 9.53674e-07 secs
create_atoms 1 single 40145.072536 655280.280280 0.000000
Created 1 atoms
  Time spent = 9.53674e-07 secs
create_atoms 1 single 306903.451726 694694.694695 0.000000
Created 1 atoms
  Time spent = 9.53674e-07 secs
create_atoms 1 single 73661.830915 696696.696697 0.000000
Created 1 atoms
  Time spent = 1.19209e-06 secs
create_atoms 1 single 406453.226613 594594.594595 0.000000
Created 1 atoms
  Time spent = 9.53674e-07 secs
create_atoms 1 single 388944.472236 514014.014014 0.000000
Created 1 atoms
  Time spent = 1.19209e-06 secs
create_atoms 1 single 58904.452226 507257.257257 0.000000
Created 1 atoms
  Time spent = 9.53674e-07 secs
create_atoms 1 single 163581.790895 552302.302302 0.000000
Created 1 atoms
  Time spent = 1.19209e-06 secs
create_atoms 1 single 296523.261631 604979.979980 0.000000
Created 1 atoms
  Time spent = 1.90735e-06 secs
create_atoms 1 single 391820.910455 657407.407407 0.000000
Created 1 atoms
  Time spent = 1.19209e-06 secs
create_atoms 1 single 297148.574287 589464.464464 0.000000
Created 1 atoms
  Time spent = 9.53674e-07 secs
create_atoms 1 single 274887.443722 662912.912913 0.000000
Created 1 atoms
  Time spent = 1.19209e-06 secs
create_atoms 1 single 243496.748374 657157.157157 0.000000
Created 1 atoms
  Time spent = 9.53674e-07 secs
create_atoms 1 single 279889.944972 539289.289289 0.000000
Created 1 atoms
  Time spent = 2.14577e-06 secs
create_atoms 1 single 133816.908454 631381.381381 0.000000
Created 1 atoms
  Time spent = 9.53674e-07 secs
create_atoms 1 single 406453.226613 669794.794795 0.000000
Created 1 atoms
  Time spent = 1.19209e-06 secs
create_atoms 1 single 341045.522761 510010.010010 0.000000
Created 1 atoms
  Time spent = 9.53674e-07 secs
create_atoms 1 single 228739.369685 666416.416416 0.000000
Created 1 atoms
  Time spent = 9.53674e-07 secs
create_atoms 1 single 55777.888944 649024.024024 0.000000
Created 1 atoms
  Time spent = 1.19209e-06 secs
create_atoms 1 single 449349.674837 684184.184184 0.000000
Created 1 atoms
  Time spent = 9.53674e-07 secs
create_atoms 1 single 26013.006503 606231.231231 0.000000
Created 1 atoms
  Time spent = 9.53674e-07 secs
create_atoms 1 single 180715.357679 621871.871872 0.000000
Created 1 atoms
  Time spent = 9.53674e-07 secs
create_atoms 1 single 431715.857929 644519.519520 0.000000
Created 1 atoms
  Time spent = 9.53674e-07 secs
create_atoms 1 single 98299.149575 737612.612613 0.000000
Created 1 atoms
  Time spent = 9.53674e-07 secs
create_atoms 1 single 475362.681341 520895.895896 0.000000
Created 1 atoms
  Time spent = 9.53674e-07 secs
create_atoms 1 single 359429.714857 685310.310310 0.000000
Created 1 atoms
  Time spent = 9.53674e-07 secs
create_atoms 1 single 199099.549775 629129.129129 0.000000
Created 1 atoms
  Time spent = 1.19209e-06 secs
create_atoms 1 single 92796.398199 550800.800801 0.000000
Created 1 atoms
  Time spent = 9.53674e-07 secs
create_atoms 1 single 266383.191596 724349.349349 0.000000
Created 1 atoms
  Time spent = 9.53674e-07 secs
create_atoms 1 single 100675.337669 509009.009009 0.000000
Created 1 atoms
  Time spent = 9.53674e-07 secs
create_atoms 1 single 76538.269135 668043.043043 0.000000
Created 1 atoms
  Time spent = 1.19209e-06 secs
create_atoms 1 single 183966.983492 642142.142142 0.000000
Created 1 atoms
  Time spent = 9.53674e-07 secs
create_atoms 1 single 213106.553277 558683.683684 0.000000
Created 1 atoms
  Time spent = 1.19209e-06 secs
create_atoms 1 single 220860.430215 552802.802803 0.000000
Created 1 atoms
  Time spent = 9.53674e-07 secs
create_atoms 1 single 380315.157579 723098.098098 0.000000
Created 1 atoms
  Time spent = 1.19209e-06 secs
create_atoms 1 single 300025.012506 533033.033033 0.000000
Created 1 atoms
  Time spent = 9.53674e-07 secs
create_atoms 1 single 337543.771886 564689.689690 0.000000
Created 1 atoms
  Time spent = 9.53674e-07 secs
create_atoms 1 single 199224.612306 653028.028028 0.000000
Created 1 atoms
  Time spent = 9.53674e-07 secs
create_atoms 1 single 4752.376188 714714.714715 0.000000
Created 1 atoms
  Time spent = 9.53674e-07 secs
create_atoms 1 single 324537.268634 666916.916917 0.000000
Created 1 atoms
  Time spent = 1.90735e-06 secs
create_atoms 1 single 220735.367684 574949.949950 0.000000
Created 1 atoms
  Time spent = 1.90735e-06 secs
create_atoms 1 single 345422.711356 606981.981982 0.000000
Created 1 atoms
  Time spent = 9.53674e-07 secs
create_atoms 1 single 346548.274137 579454.454454 0.000000
Created 1 atoms
  Time spent = 6.91414e-06 secs
create_atoms 1 single 425712.856428 676426.426426 0.000000
Created 1 atoms
  Time spent = 9.53674e-07 secs
create_atoms 1 single 117558.779390 632507.507508 0.000000
Created 1 atoms
  Time spent = 9.53674e-07 secs
create_atoms 1 single 425087.543772 634259.259259 0.000000
Created 1 atoms
  Time spent = 1.90735e-06 secs
create_atoms 1 single 272511.255628 672922.922923 0.000000
Created 1 atoms
  Time spent = 2.14577e-06 secs
create_atoms 1 single 432591.295648 702077.077077 0.000000
Created 1 atoms
  Time spent = 1.90735e-06 secs
create_atoms 1 single 148449.224612 742617.617618 0.000000
Created 1 atoms
  Time spent = 9.53674e-07 secs
create_atoms 1 single 319409.704852 528153.153153 0.000000
Created 1 atoms
  Time spent = 9.53674e-07 secs
create_atoms 1 single 150200.100050 694319.319319 0.000000
Created 1 atoms
  Time spent = 9.53674e-07 secs
create_atoms 1 single 347423.711856 664539.539540 0.000000
Created 1 atoms
  Time spent = 9.53674e-07 secs
create_atoms 1 single 272886.443222 520520.520521 0.000000
Created 1 atoms
  Time spent = 9.53674e-07 secs
create_atoms 1 single 41645.822911 644144.144144 0.000000
Created 1 atoms
  Time spent = 9.53674e-07 secs
create_atoms 1 single 265257.628814 639514.514515 0.000000
Created 1 atoms
  Time spent = 9.53674e-07 secs
create_atoms 1 single 486868.434217 704079.079079 0.000000
Created 1 atoms
  Time spent = 1.19209e-06 secs
create_atoms 1 single 39894.947474 631006.006006 0.000000
Created 1 atoms
  Time spent = 9.53674e-07 secs
create_atoms 1 single 396198.099050 595595.595596 0.000000
Created 1 atoms
  Time spent = 9.53674e-07 secs
create_atoms 1 single 349549.774887 691316.316316 0.000000
Created 1 atoms
  Time spent = 1.90735e-06 secs
create_atoms 1 single 410705.352676 728978.978979 0.000000
Created 1 atoms
  Time spent = 2.14577e-06 secs
create_atoms 1 single 77413.706853 651026.026026 0.000000
Created 1 atoms
  Time spent = 9.53674e-07 secs
create_atoms 1 single 73161.580790 708833.833834 0.000000
Created 1 atoms
  Time spent = 1.19209e-06 secs
create_atoms 1 single 18134.067034 537412.412412 0.000000
Created 1 atoms
  Time spent = 9.53674e-07 secs
create_atoms 1 single 51650.825413 516516.516517 0.000000
Created 1 atoms
  Time spent = 1.19209e-06 secs
create_atoms 1 single 483991.995998 598098.098098 0.000000
Created 1 atoms
  Time spent = 9.53674e-07 secs
create_atoms 1 single 122811.405703 715715.715716 0.000000
Created 1 atoms
  Time spent = 9.53674e-07 secs
create_atoms 1 single 446223.111556 600725.725726 0.000000
Created 1 atoms
  Time spent = 9.53674e-07 secs
create_atoms 1 single 458354.177089 695195.195195 0.000000
Created 1 atoms
  Time spent = 1.90735e-06 secs
create_atoms 1 single 191845.922961 679679.679680 0.000000
Created 1 atoms
  Time spent = 1.19209e-06 secs
create_atoms 1 single 173461.730865 506131.131131 0.000000
Created 1 atoms
  Time spent = 9.53674e-07 secs
create_atoms 1 single 148324.162081 721471.471471 0.000000
Created 1 atoms
  Time spent = 1.19209e-06 secs
create_atoms 1 single 493621.810905 628378.378378 0.000000
Created 1 atoms
  Time spent = 9.53674e-07 secs
create_atoms 1 single 56778.389195 597597.597598 0.000000
Created 1 atoms
  Time spent = 2.14577e-06 secs
create_atoms 1 single 31140.570285 659159.159159 0.000000
Created 1 atoms
  Time spent = 1.90735e-06 secs
create_atoms 1 single 247498.749375 517017.017017 0.000000
Created 1 atoms
  Time spent = 9.53674e-07 secs
create_atoms 1 single 211855.927964 690065.065065 0.000000
Created 1 atoms
  Time spent = 1.90735e-06 secs
create_atoms 1 single 55277.638819 580705.705706 0.000000
Created 1 atoms
  Time spent = 1.19209e-06 secs
create_atoms 1 single 361055.527764 582582.582583 0.000000
Created 1 atoms
  Time spent = 9.53674e-07 secs
create_atoms 1 single 330415.207604 688063.063063 0.000000
Created 1 atoms
  Time spent = 9.53674e-07 secs
create_atoms 1 single 399824.912456 681556.556557 0.000000
Created 1 atoms
  Time spent = 9.53674e-07 secs
create_atoms 1 single 238619.309655 579204.204204 0.000000
Created 1 atoms
  Time spent = 9.53674e-07 secs
create_atoms 1 single 8754.377189 578453.453453 0.000000
Created 1 atoms
  Time spent = 9.53674e-07 secs
create_atoms 1 single 377688.844422 693443.443443 0.000000
Created 1 atoms
  Time spent = 9.53674e-07 secs
create_atoms 1 single 150700.350175 664164.164164 0.000000
Created 1 atoms
  Time spent = 1.19209e-06 secs
create_atoms 1 single 170460.230115 674799.799800 0.000000
Created 1 atoms
  Time spent = 9.53674e-07 secs
create_atoms 1 single 476113.056528 744994.994995 0.000000
Created 1 atoms
  Time spent = 1.19209e-06 secs
create_atoms 1 single 135817.908954 646896.896897 0.000000
Created 1 atoms
  Time spent = 1.90735e-06 secs
create_atoms 1 single 488119.059530 736361.361361 0.000000
Created 1 atoms
  Time spent = 1.19209e-06 secs
create_atoms 1 single 232741.370685 727477.477477 0.000000
Created 1 atoms
  Time spent = 9.53674e-07 secs
create_atoms 1 single 183591.795898 733358.358358 0.000000
Created 1 atoms
  Time spent = 9.53674e-07 secs
create_atoms 1 single 433216.608304 624749.749750 0.000000
Created 1 atoms
  Time spent = 1.90735e-06 secs
create_atoms 1 single 124187.093547 584709.709710 0.000000
Created 1 atoms
  Time spent = 2.14577e-06 secs
create_atoms 1 single 404952.476238 517267.267267 0.000000
Created 1 atoms
  Time spent = 9.53674e-07 secs
create_atoms 1 single 360305.152576 659034.034034 0.000000
Created 1 atoms
  Time spent = 9.53674e-07 secs
create_atoms 1 single 387943.971986 691941.941942 0.000000
Created 1 atoms
  Time spent = 9.53674e-07 secs
create_atoms 1 single 20135.067534 581706.706707 0.000000
Created 1 atoms
  Time spent = 2.14577e-06 secs
create_atoms 1 single 140945.472736 548548.548549 0.000000
Created 1 atoms
  Time spent = 1.19209e-05 secs
create_atoms 1 single 446723.361681 573698.698699 0.000000
Created 1 atoms
  Time spent = 9.53674e-07 secs
create_atoms 1 single 256378.189095 626876.876877 0.000000
Created 1 atoms
  Time spent = 9.53674e-07 secs
create_atoms 1 single 12381.190595 618493.493493 0.000000
Created 1 atoms
  Time spent = 1.19209e-06 secs
create_atoms 1 single 396448.224112 532907.907908 0.000000
Created 1 atoms
  Time spent = 9.53674e-07 secs
create_atoms 1 single 404827.413707 538913.913914 0.000000
Created 1 atoms
  Time spent = 1.19209e-06 secs
create_atoms 1 single 255252.626313 599599.599600 0.000000
Created 1 atoms
  Time spent = 9.53674e-07 secs
create_atoms 1 single 184217.108554 632132.132132 0.000000
Created 1 atoms
  Time spent = 9.53674e-07 secs
create_atoms 1 single 49274.637319 625875.875876 0.000000
Created 1 atoms
  Time spent = 9.53674e-07 secs
create_atoms 1 single 229864.932466 540665.665666 0.000000
Created 1 atoms
  Time spent = 9.53674e-07 secs
create_atoms 1 single 352176.088044 646896.896897 0.000000
Created 1 atoms
  Time spent = 9.53674e-07 secs
create_atoms 1 single 398949.474737 711336.336336 0.000000
Created 1 atoms
  Time spent = 1.09673e-05 secs
create_atoms 1 single 351675.837919 509759.759760 0.000000
Created 1 atoms
  Time spent = 9.53674e-07 secs
create_atoms 1 single 93796.898449 592592.592593 0.000000
Created 1 atoms
  Time spent = 1.90735e-06 secs
create_atoms 1 single 372186.093047 716966.966967 0.000000
Created 1 atoms
  Time spent = 2.14577e-06 secs
create_atoms 1 single 233616.808404 532657.657658 0.000000
Created 1 atoms
  Time spent = 9.53674e-07 secs
create_atoms 1 single 121685.842921 562437.437437 0.000000
Created 1 atoms
  Time spent = 9.53674e-07 secs
create_atoms 1 single 327038.519260 569569.569570 0.000000
Created 1 atoms
  Time spent = 9.53674e-07 secs
create_atoms 1 single 246498.249125 591716.716717 0.000000
Created 1 atoms
  Time spent = 9.53674e-07 secs
create_atoms 1 single 362306.153077 523148.148148 0.000000
Created 1 atoms
  Time spent = 9.53674e-07 secs
create_atoms 1 single 262631.315658 540915.915916 0.000000
Created 1 atoms
  Time spent = 9.53674e-07 secs
create_atoms 1 single 432716.358179 536661.661662 0.000000
Created 1 atoms
  Time spent = 2.14577e-06 secs
create_atoms 1 single 89544.772386 733983.983984 0.000000
Created 1 atoms
  Time spent = 1.90735e-06 secs
create_atoms 1 single 215107.553777 715340.340340 0.000000
Created 1 atoms
  Time spent = 1.19209e-06 secs
create_atoms 1 single 124187.093547 681556.556557 0.000000
Created 1 atoms
  Time spent = 1.90735e-06 secs
create_atoms 1 single 245122.561281 625875.875876 0.000000
Created 1 atoms
  Time spent = 2.14577e-06 secs
create_atoms 1 single 105552.776388 551176.176176 0.000000
Created 1 atoms
  Time spent = 9.53674e-07 secs
create_atoms 1 single 452726.363182 730980.980981 0.000000
Created 1 atoms
  Time spent = 2.14577e-06 secs
create_atoms 1 single 29014.507254 504629.629630 0.000000
Created 1 atoms
  Time spent = 9.53674e-07 secs
create_atoms 1 single 291645.822911 674924.924925 0.000000
Created 1 atoms
  Time spent = 1.09673e-05 secs
create_atoms 1 single 152701.350675 598223.223223 0.000000
Created 1 atoms
  Time spent = 1.90735e-06 secs
create_atoms 1 single 171210.605303 600225.225225 0.000000
Created 1 atoms
  Time spent = 1.90735e-06 secs
create_atoms 1 single 127813.906953 549299.299299 0.000000
Created 1 atoms
  Time spent = 9.05991e-06 secs
create_atoms 1 single 213481.740870 632757.757758 0.000000
Created 1 atoms
  Time spent = 2.14577e-06 secs
create_atoms 1 single 107178.589295 575825.825826 0.000000
Created 1 atoms
  Time spent = 9.53674e-07 secs
create_atoms 1 single 479739.869935 610860.860861 0.000000
Created 1 atoms
  Time spent = 2.14577e-06 secs
create_atoms 1 single 119684.842421 600475.475475 0.000000
Created 1 atoms
  Time spent = 1.90735e-06 secs
create_atoms 1 single 31515.757879 595970.970971 0.000000
Created 1 atoms
  Time spent = 9.53674e-07 secs
create_atoms 1 single 161830.915458 699324.324324 0.000000
Created 1 atoms
  Time spent = 1.19209e-06 secs
create_atoms 1 single 270760.380190 598723.723724 0.000000
Created 1 atoms
  Time spent = 9.53674e-07 secs
create_atoms 1 single 407953.976988 719094.094094 0.000000
Created 1 atoms
  Time spent = 9.53674e-07 secs
create_atoms 1 single 71910.955478 547422.422422 0.000000
Created 1 atoms
  Time spent = 1.90735e-06 secs
create_atoms 1 single 176463.231616 657407.407407 0.000000
Created 1 atoms
  Time spent = 1.90735e-06 secs
create_atoms 1 single 46898.449225 728228.228228 0.000000
Created 1 atoms
  Time spent = 9.53674e-07 secs
create_atoms 1 single 443846.923462 510135.135135 0.000000
Created 1 atoms
  Time spent = 1.90735e-06 secs
create_atoms 1 single 349174.587294 704329.329329 0.000000
Created 1 atoms
  Time spent = 1.90735e-06 secs
create_atoms 1 single 133066.533267 698323.323323 0.000000
Created 1 atoms
  Time spent = 2.14577e-06 secs
create_atoms 1 single 240120.060030 540415.415415 0.000000
Created 1 atoms
  Time spent = 1.90735e-06 secs
create_atoms 1 single 278514.257129 606231.231231 0.000000
Created 1 atoms
  Time spent = 2.14577e-06 secs
create_atoms 1 single 56153.076538 528778.778779 0.000000
Created 1 atoms
  Time spent = 9.53674e-07 secs
create_atoms 1 single 223736.868434 509009.009009 0.000000
Created 1 atoms
  Time spent = 1.90735e-06 secs
create_atoms 1 single 344297.148574 570320.320320 0.000000
Created 1 atoms
  Time spent = 1.90735e-06 secs
create_atoms 1 single 22136.068034 573448.448448 0.000000
Created 1 atoms
  Time spent = 1.90735e-06 secs
create_atoms 1 single 313656.828414 637137.137137 0.000000
Created 1 atoms
  Time spent = 2.14577e-06 secs
create_atoms 1 single 291145.572786 708833.833834 0.000000
Created 1 atoms
  Time spent = 9.53674e-07 secs
create_atoms 1 single 56278.139070 730605.605606 0.000000
Created 1 atoms
  Time spent = 1.19209e-06 secs
create_atoms 1 single 262381.190595 605355.355355 0.000000
Created 1 atoms
  Time spent = 9.53674e-07 secs
create_atoms 1 single 286893.446723 745495.495495 0.000000
Created 1 atoms
  Time spent = 2.14577e-06 secs
create_atoms 1 single 357053.526763 533408.408408 0.000000
Created 1 atoms
  Time spent = 9.53674e-07 secs
create_atoms 1 single 187093.546773 657532.532533 0.000000
Created 1 atoms
  Time spent = 1.90735e-06 secs
create_atoms 1 single 71910.955478 614489.489489 0.000000
Created 1 atoms
  Time spent = 1.09673e-05 secs
create_atoms 1 single 16883.441721 744369.369369 0.000000
Created 1 atoms
  Time spent = 9.53674e-07 secs
create_atoms 1 single 348424.212106 629504.504505 0.000000
Created 1 atoms
  Time spent = 9.53674e-07 secs
create_atoms 1 single 148824.412206 711461.461461 0.000000
Created 1 atoms
  Time spent = 9.53674e-07 secs
create_atoms 1 single 320160.080040 518893.893894 0.000000
Created 1 atoms
  Time spent = 9.53674e-07 secs
create_atoms 1 single 397448.724362 555680.680681 0.000000
Created 1 atoms
  Time spent = 1.19209e-05 secs
create_atoms 1 single 237243.621811 664039.039039 0.000000
Created 1 atoms
  Time spent = 1.90735e-06 secs
create_atoms 1 single 330790.395198 707832.832833 0.000000
Created 1 atoms
  Time spent = 1.90735e-06 secs
create_atoms 1 single 42521.260630 612737.737738 0.000000
Created 1 atoms
  Time spent = 1.09673e-05 secs
create_atoms 1 single 91170.585293 743743.743744 0.000000
Created 1 atoms
  Time spent = 2.14577e-06 secs
create_atoms 1 single 175337.668834 527027.027027 0.000000
Created 1 atoms
  Time spent = 1.90735e-06 secs
create_atoms 1 single 13006.503252 554554.554555 0.000000
Created 1 atoms
  Time spent = 2.14577e-06 secs
create_atoms 1 single 77288.644322 682682.682683 0.000000
Created 1 atoms
  Time spent = 1.90735e-06 secs
create_atoms 1 single 193721.860930 662662.662663 0.000000
Created 1 atoms
  Time spent = 1.90735e-06 secs
create_atoms 1 single 314532.266133 554929.929930 0.000000
Created 1 atoms
  Time spent = 2.14577e-06 secs
create_atoms 1 single 173586.793397 536161.161161 0.000000
Created 1 atoms
  Time spent = 1.90735e-06 secs
create_atoms 1 single 372686.343172 667917.917918 0.000000
Created 1 atoms
  Time spent = 9.53674e-07 secs
create_atoms 1 single 9754.877439 527152.152152 0.000000
Created 1 atoms
  Time spent = 2.14577e-06 secs
create_atoms 1 single 459979.989995 569569.569570 0.000000
Created 1 atoms
  Time spent = 1.90735e-06 secs
create_atoms 1 single 28639.319660 626626.626627 0.000000
Created 1 atoms
  Time spent = 1.19209e-06 secs
create_atoms 1 single 75287.643822 597222.222222 0.000000
Created 1 atoms
  Time spent = 9.53674e-07 secs
create_atoms 1 single 435217.608804 728978.978979 0.000000
Created 1 atoms
  Time spent = 2.14577e-06 secs
create_atoms 1 single 253126.563282 679179.179179 0.000000
Created 1 atoms
  Time spent = 9.53674e-07 secs
create_atoms 1 single 345797.898949 522772.772773 0.000000
Created 1 atoms
  Time spent = 2.14577e-06 secs
create_atoms 1 single 476113.056528 590590.590591 0.000000
Created 1 atoms
  Time spent = 1.90735e-06 secs
create_atoms 1 single 152076.038019 677427.427427 0.000000
Created 1 atoms
  Time spent = 1.90735e-06 secs
create_atoms 1 single 297648.824412 702577.577578 0.000000
Created 1 atoms
  Time spent = 2.14577e-06 secs
create_atoms 1 single 29514.757379 685810.810811 0.000000
Created 1 atoms
  Time spent = 1.90735e-06 secs
create_atoms 1 single 88169.084542 659409.409409 0.000000
Created 1 atoms
  Time spent = 1.90735e-06 secs
create_atoms 1 single 71660.830415 657282.282282 0.000000
Created 1 atoms
  Time spent = 1.19209e-06 secs
create_atoms 1 single 472861.430715 638138.138138 0.000000
Created 1 atoms
  Time spent = 4.05312e-06 secs
create_atoms 1 single 474987.493747 673423.423423 0.000000
Created 1 atoms
  Time spent = 2.14577e-06 secs
create_atoms 1 single 236618.309155 739864.864865 0.000000
Created 1 atoms
  Time spent = 1.90735e-06 secs
create_atoms 1 single 156203.101551 615115.115115 0.000000
Created 1 atoms
  Time spent = 1.90735e-06 secs
create_atoms 1 single 135192.596298 667292.292292 0.000000
Created 1 atoms
  Time spent = 9.53674e-07 secs
create_atoms 1 single 47023.511756 718093.093093 0.000000
Created 1 atoms
  Time spent = 2.14577e-06 secs
create_atoms 1 single 430465.232616 565565.565566 0.000000
Created 1 atoms
  Time spent = 1.90735e-06 secs
create_atoms 1 single 489369.684842 507632.632633 0.000000
Created 1 atoms
  Time spent = 2.14577e-06 secs
create_atoms 1 single 311405.702851 532782.782783 0.000000
Created 1 atoms
  Time spent = 9.53674e-07 secs
create_atoms 1 single 178214.107054 571696.696697 0.000000
Created 1 atoms
  Time spent = 1.90735e-06 secs
create_atoms 1 single 435967.983992 742867.867868 0.000000
Created 1 atoms
  Time spent = 9.53674e-07 secs
create_atoms 1 single 313656.828414 591341.341341 0.000000
Created 1 atoms
  Time spent = 1.90735e-06 secs
create_atoms 1 single 59654.827414 705455.455455 0.000000
Created 1 atoms
  Time spent = 1.90735e-06 secs
create_atoms 1 single 129939.969985 731731.731732 0.000000
Created 1 atoms
  Time spent = 1.19209e-06 secs
create_atoms 1 single 251750.875438 729354.354354 0.000000
Created 1 atoms
  Time spent = 2.14577e-06 secs
create_atoms 1 single 328914.457229 515640.640641 0.000000
Created 1 atoms
  Time spent = 2.14577e-06 secs
create_atoms 1 single 388569.284642 645770.770771 0.000000
Created 1 atoms
  Time spent = 2.86102e-06 secs
create_atoms 1 single 233616.808404 695820.820821 0.000000
Created 1 atoms
  Time spent = 2.14577e-06 secs
create_atoms 1 single 181340.670335 668168.168168 0.000000
Created 1 atoms
  Time spent = 3.09944e-06 secs
create_atoms 1 single 472236.118059 731606.606607 0.000000
Created 1 atoms
  Time spent = 2.86102e-06 secs
create_atoms 1 single 300025.012506 727102.102102 0.000000
Created 1 atoms
  Time spent = 1.90735e-06 secs
create_atoms 1 single 5127.563782 557557.557558 0.000000
Created 1 atoms
  Time spent = 1.90735e-06 secs
create_atoms 1 single 145822.911456 512262.262262 0.000000
Created 1 atoms
  Time spent = 2.14577e-06 secs
create_atoms 1 single 199599.799900 734734.734735 0.000000
Created 1 atoms
  Time spent = 1.90735e-06 secs
create_atoms 1 single 400450.225113 659909.909910 0.000000
Created 1 atoms
  Time spent = 1.90735e-06 secs
create_atoms 1 single 274137.068534 628003.003003 0.000000
Created 1 atoms
  Time spent = 2.14577e-06 secs
create_atoms 1 single 39644.822411 565565.565566 0.000000
Created 1 atoms
  Time spent = 2.14577e-06 secs
create_atoms 1 single 73161.580790 513513.513514 0.000000
Created 1 atoms
  Time spent = 1.28746e-05 secs
create_atoms 1 single 311280.640320 506006.006006 0.000000
Created 1 atoms
  Time spent = 1.19209e-06 secs
create_atoms 1 single 154327.163582 583083.083083 0.000000
Created 1 atoms
  Time spent = 9.53674e-07 secs
create_atoms 1 single 464732.366183 599599.599600 0.000000
Created 1 atoms
  Time spent = 1.90735e-06 secs
create_atoms 1 single 302151.075538 613363.363363 0.000000
Created 1 atoms
  Time spent = 1.19209e-06 secs
create_atoms 1 single 476363.181591 701701.701702 0.000000
Created 1 atoms
  Time spent = 1.90735e-06 secs
create_atoms 1 single 36518.259130 516891.891892 0.000000
Created 1 atoms
  Time spent = 9.53674e-07 secs
create_atoms 1 single 112181.090545 543293.293293 0.000000
Created 1 atoms
  Time spent = 2.14577e-06 secs
create_atoms 1 single 221110.555278 651276.276276 0.000000
Created 1 atoms
  Time spent = 9.53674e-07 secs
create_atoms 1 single 473111.555778 581331.331331 0.000000
Created 1 atoms
  Time spent = 1.90735e-06 secs
create_atoms 1 single 455227.613807 612862.862863 0.000000
Created 1 atoms
  Time spent = 9.53674e-07 secs
create_atoms 1 single 444597.298649 742117.117117 0.000000
Created 1 atoms
  Time spent = 3.09944e-06 secs
create_atoms 1 single 161330.665333 726226.226226 0.000000
Created 1 atoms
  Time spent = 2.86102e-06 secs
create_atoms 1 single 495497.748874 686311.311311 0.000000
Created 1 atoms
  Time spent = 3.09944e-06 secs
create_atoms 1 single 183716.858429 608233.233233 0.000000
Created 1 atoms
  Time spent = 1.90735e-06 secs
create_atoms 1 single 444347.173587 550050.050050 0.000000
Created 1 atoms
  Time spent = 5.96046e-06 secs
create_atoms 1 single 286018.009005 528528.528529 0.000000
Created 1 atoms
  Time spent = 3.09944e-06 secs
create_atoms 1 single 290645.322661 597722.722723 0.000000
Created 1 atoms
  Time spent = 1.90735e-06 secs
create_atoms 1 single 361180.590295 540040.040040 0.000000
Created 1 atoms
  Time spent = 3.09944e-06 secs
create_atoms 1 single 259129.564782 515140.140140 0.000000
Created 1 atoms
  Time spent = 2.86102e-06 secs
create_atoms 1 single 200225.112556 680305.305305 0.000000
Created 1 atoms
  Time spent = 1.09673e-05 secs
create_atoms 1 single 5252.626313 599599.599600 0.000000
Created 1 atoms
  Time spent = 2.14577e-06 secs
create_atoms 1 single 77788.894447 624499.499499 0.000000
Created 1 atoms
  Time spent = 9.53674e-07 secs
create_atoms 1 single 154577.288644 653403.403403 0.000000
Created 1 atoms
  Time spent = 9.53674e-07 secs
create_atoms 1 single 161455.727864 676926.926927 0.000000
Created 1 atoms
  Time spent = 2.86102e-06 secs
create_atoms 1 single 83791.895948 615990.990991 0.000000
Created 1 atoms
  Time spent = 3.09944e-06 secs
create_atoms 1 single 281515.757879 730230.230230 0.000000
Created 1 atoms
  Time spent = 3.09944e-06 secs
create_atoms 1 single 198099.049525 575575.575576 0.000000
Created 1 atoms
  Time spent = 2.86102e-06 secs
create_atoms 1 single 260255.127564 653403.403403 0.000000
Created 1 atoms
  Time spent = 1.90735e-06 secs
create_atoms 1 single 220610.305153 662412.412412 0.000000
Created 1 atoms
  Time spent = 2.14577e-06 secs
create_atoms 1 single 493746.873437 637887.887888 0.000000
Created 1 atoms
  Time spent = 1.90735e-06 secs
create_atoms 1 single 251750.875438 659659.659660 0.000000
Created 1 atoms
  Time spent = 1.90735e-06 secs
create_atoms 1 single 70285.142571 673798.798799 0.000000
Created 1 atoms
  Time spent = 1.90735e-06 secs
create_atoms 1 single 54277.138569 542167.167167 0.000000
Created 1 atoms
  Time spent = 9.53674e-07 secs
create_atoms 1 single 112931.465733 594094.094094 0.000000
Created 1 atoms
  Time spent = 9.53674e-07 secs
create_atoms 1 single 162206.103052 610235.235235 0.000000
Created 1 atoms
  Time spent = 1.90735e-06 secs
create_atoms 1 single 486993.496748 715590.590591 0.000000
Created 1 atoms
  Time spent = 1.90735e-06 secs
create_atoms 1 single 32516.258129 619369.369369 0.000000
Created 1 atoms
  Time spent = 1.90735e-06 secs
create_atoms 1 single 456728.364182 559184.184184 0.000000
Created 1 atoms
  Time spent = 1.90735e-06 secs
create_atoms 1 single 139194.597299 730605.605606 0.000000
Created 1 atoms
  Time spent = 1.90735e-06 secs
create_atoms 1 single 288394.197099 691691.691692 0.000000
Created 1 atoms
  Time spent = 2.14577e-06 secs
create_atoms 1 single 19759.879940 669419.419419 0.000000
Created 1 atoms
  Time spent = 1.90735e-06 secs
create_atoms 1 single 333541.770885 699574.574575 0.000000
Created 1 atoms
  Time spent = 9.53674e-07 secs
create_atoms 1 single 494497.248624 529404.404404 0.000000
Created 1 atoms
  Time spent = 2.14577e-06 secs
create_atoms 1 single 358054.027014 575075.075075 0.000000
Created 1 atoms
  Time spent = 1.90735e-06 secs
create_atoms 1 single 120810.405203 545920.920921 0.000000
Created 1 atoms
  Time spent = 2.14577e-06 secs
create_atoms 1 single 350425.212606 589089.089089 0.000000
Created 1 atoms
  Time spent = 2.14577e-06 secs
create_atoms 1 single 472736.368184 605855.855856 0.000000
Created 1 atoms
  Time spent = 9.53674e-07 secs
create_atoms 1 single 305152.576288 721346.346346 0.000000
Created 1 atoms
  Time spent = 1.90735e-06 secs
create_atoms 1 single 275137.568784 568318.318318 0.000000
Created 1 atoms
  Time spent = 2.14577e-06 secs
create_atoms 1 single 463606.803402 704329.329329 0.000000
Created 1 atoms
  Time spent = 1.90735e-06 secs
create_atoms 1 single 398449.224612 728353.353353 0.000000
Created 1 atoms
  Time spent = 1.90735e-06 secs
create_atoms 1 single 322536.268134 555180.180180 0.000000
Created 1 atoms
  Time spent = 2.14577e-06 secs
create_atoms 1 single 67533.766883 573198.198198 0.000000
Created 1 atoms
  Time spent = 1.90735e-06 secs
create_atoms 1 single 412081.040520 645145.145145 0.000000
Created 1 atoms
  Time spent = 9.53674e-07 secs
create_atoms 1 single 169459.729865 662787.787788 0.000000
Created 1 atoms
  Time spent = 2.14577e-06 secs
create_atoms 1 single 437843.921961 616491.491491 0.000000
Created 1 atoms
  Time spent = 2.14577e-06 secs
create_atoms 1 single 454352.176088 722472.472472 0.000000
Created 1 atoms
  Time spent = 3.09944e-06 secs
create_atoms 1 single 400200.100050 698823.823824 0.000000
Created 1 atoms
  Time spent = 3.09944e-06 secs
create_atoms 1 single 98174.087044 688313.313313 0.000000
Created 1 atoms
  Time spent = 2.86102e-06 secs
create_atoms 1 single 301150.575288 621246.246246 0.000000
Created 1 atoms
  Time spent = 3.09944e-06 secs
create_atoms 1 single 123436.718359 695820.820821 0.000000
Created 1 atoms
  Time spent = 4.05312e-06 secs
create_atoms 1 single 210355.177589 653153.153153 0.000000
Created 1 atoms
  Time spent = 2.86102e-06 secs
create_atoms 1 single 284017.008504 631631.631632 0.000000
Created 1 atoms
  Time spent = 1.90735e-06 secs
create_atoms 1 single 27013.506753 643768.768769 0.000000
Created 1 atoms
  Time spent = 2.14577e-06 secs
create_atoms 1 single 59029.514757 693818.818819 0.000000
Created 1 atoms
  Time spent = 3.09944e-06 secs
create_atoms 1 single 207353.676838 679179.179179 0.000000
Created 1 atoms
  Time spent = 2.14577e-06 secs
create_atoms 1 single 130065.032516 579329.329329 0.000000
Created 1 atoms
  Time spent = 1.90735e-06 secs
create_atoms 1 single 321660.830415 726601.601602 0.000000
Created 1 atoms
  Time spent = 1.90735e-06 secs
create_atoms 1 single 470360.180090 614239.239239 0.000000
Created 1 atoms
  Time spent = 2.14577e-06 secs
create_atoms 1 single 458854.427214 537662.662663 0.000000
Created 1 atoms
  Time spent = 1.90735e-06 secs
create_atoms 1 single 18009.004502 638263.263263 0.000000
Created 1 atoms
  Time spent = 1.90735e-06 secs
create_atoms 1 single 416708.354177 570070.070070 0.000000
Created 1 atoms
  Time spent = 2.14577e-06 secs
create_atoms 1 single 195972.986493 527902.902903 0.000000
Created 1 atoms
  Time spent = 4.05312e-06 secs
create_atoms 1 single 275887.943972 723723.723724 0.000000
Created 1 atoms
  Time spent = 3.09944e-06 secs
create_atoms 1 single 493371.685843 616991.991992 0.000000
Created 1 atoms
  Time spent = 3.09944e-06 secs
create_atoms 1 single 455852.926463 583708.708709 0.000000
Created 1 atoms
  Time spent = 2.86102e-06 secs
create_atoms 1 single 286018.009005 551676.676677 0.000000
Created 1 atoms
  Time spent = 3.09944e-06 secs
create_atoms 1 single 245872.936468 504379.379379 0.000000
Created 1 atoms
  Time spent = 2.86102e-06 secs
create_atoms 1 single 31765.882941 540165.165165 0.000000
Created 1 atoms
  Time spent = 2.86102e-06 secs
create_atoms 1 single 210230.115058 705205.205205 0.000000
Created 1 atoms
  Time spent = 2.14577e-06 secs
create_atoms 1 single 99549.774887 713963.963964 0.000000
Created 1 atoms
  Time spent = 1.90735e-06 secs
create_atoms 1 single 308279.139570 584334.334334 0.000000
Created 1 atoms
  Time spent = 1.90735e-06 secs
create_atoms 1 single 131815.907954 571946.946947 0.000000
Created 1 atoms
  Time spent = 4.05312e-06 secs
create_atoms 1 single 323036.518259 734234.234234 0.000000
Created 1 atoms
  Time spent = 2.86102e-06 secs
create_atoms 1 single 239369.684842 548048.048048 0.000000
Created 1 atoms
  Time spent = 3.09944e-06 secs
create_atoms 1 single 171585.792896 631631.631632 0.000000
Created 1 atoms
  Time spent = 3.09944e-06 secs
create_atoms 1 single 440470.235118 556181.181181 0.000000
Created 1 atoms
  Time spent = 3.09944e-06 secs
create_atoms 1 single 292771.385693 614489.489489 0.000000
Created 1 atoms
  Time spent = 3.09944e-06 secs
create_atoms 1 single 452476.238119 707832.832833 0.000000
Created 1 atoms
  Time spent = 1.90735e-06 secs
create_atoms 1 single 230615.307654 513388.388388 0.000000
Created 1 atoms
  Time spent = 2.14577e-06 secs
create_atoms 1 single 394572.286143 743993.993994 0.000000
Created 1 atoms
  Time spent = 2.14577e-06 secs
create_atoms 1 single 9379.689845 742242.242242 0.000000
Created 1 atoms
  Time spent = 1.90735e-06 secs
create_atoms 1 single 234742.371186 591091.091091 0.000000
Created 1 atoms
  Time spent = 2.14577e-06 secs
create_atoms 1 single 349424.712356 672297.297297 0.000000
Created 1 atoms
  Time spent = 2.86102e-06 secs
create_atoms 1 single 56778.389195 629004.004004 0.000000
Created 1 atoms
  Time spent = 1.90735e-06 secs
create_atoms 1 single 401450.725363 506381.381381 0.000000
Created 1 atoms
  Time spent = 3.09944e-06 secs
create_atoms 1 single 67158.579290 742742.742743 0.000000
Created 1 atoms
  Time spent = 2.14577e-06 secs
create_atoms 1 single 357553.776888 671296.296296 0.000000
Created 1 atoms
  Time spent = 1.90735e-06 secs
create_atoms 1 single 79789.894947 541166.166166 0.000000
Created 1 atoms
  Time spent = 1.90735e-06 secs
create_atoms 1 single 232491.245623 506006.006006 0.000000
Created 1 atoms
  Time spent = 1.90735e-06 secs
create_atoms 1 single 82916.458229 597472.472472 0.000000
Created 1 atoms
  Time spent = 2.14577e-06 secs
create_atoms 1 single 255752.876438 696196.196196 0.000000
Created 1 atoms
  Time spent = 1.90735e-06 secs
create_atoms 1 single 418209.104552 722472.472472 0.000000
Created 1 atoms
  Time spent = 1.90735e-06 secs
create_atoms 1 single 332541.270635 664789.789790 0.000000
Created 1 atoms
  Time spent = 2.14577e-06 secs
create_atoms 1 single 114932.466233 578578.578579 0.000000
Created 1 atoms
  Time spent = 2.86102e-06 secs
create_atoms 1 single 50400.200100 742242.242242 0.000000
Created 1 atoms
  Time spent = 4.05312e-06 secs
create_atoms 1 single 195847.923962 547922.922923 0.000000
Created 1 atoms
  Time spent = 3.8147e-06 secs
create_atoms 1 single 495247.623812 671046.046046 0.000000
Created 1 atoms
  Time spent = 2.86102e-06 secs
create_atoms 1 single 69534.767384 730605.605606 0.000000
Created 1 atoms
  Time spent = 4.05312e-06 secs
create_atoms 1 single 147573.786893 563688.688689 0.000000
Created 1 atoms
  Time spent = 4.05312e-06 secs
create_atoms 1 single 273761.880940 531031.031031 0.000000
Created 1 atoms
  Time spent = 2.86102e-06 secs
create_atoms 1 single 92921.460730 672547.547548 0.000000
Created 1 atoms
  Time spent = 1.90735e-06 secs
create_atoms 1 single 304902.451226 552927.927928 0.000000
Created 1 atoms
  Time spent = 1.90735e-06 secs
create_atoms 1 single 462231.115558 719094.094094 0.000000
Created 1 atoms
  Time spent = 5.00679e-06 secs
create_atoms 1 single 39519.759880 508758.758759 0.000000
Created 1 atoms
  Time spent = 4.05312e-06 secs
create_atoms 1 single 338919.459730 706706.706707 0.000000
Created 1 atoms
  Time spent = 2.14577e-06 secs
create_atoms 1 single 57903.951976 712712.712713 0.000000
Created 1 atoms
  Time spent = 1.90735e-06 secs
create_atoms 1 single 29514.757379 650650.650651 0.000000
Created 1 atoms
  Time spent = 1.90735e-06 secs
create_atoms 1 single 364807.403702 624874.874875 0.000000
Created 1 atoms
  Time spent = 2.14577e-06 secs
create_atoms 1 single 263506.753377 532032.032032 0.000000
Created 1 atoms
  Time spent = 2.14577e-06 secs
create_atoms 1 single 176963.481741 543543.543544 0.000000
Created 1 atoms
  Time spent = 1.90735e-06 secs
create_atoms 1 single 415332.666333 592592.592593 0.000000
Created 1 atoms
  Time spent = 1.90735e-06 secs
create_atoms 1 single 441470.735368 627877.877878 0.000000
Created 1 atoms
  Time spent = 2.14577e-06 secs
create_atoms 1 single 84042.021011 675175.175175 0.000000
Created 1 atoms
  Time spent = 1.19209e-05 secs
create_atoms 1 single 480240.120060 644769.769770 0.000000
Created 1 atoms
  Time spent = 1.90735e-06 secs
create_atoms 1 single 70910.455228 560185.185185 0.000000
Created 1 atoms
  Time spent = 1.90735e-06 secs
create_atoms 1 single 464982.491246 637887.887888 0.000000
Created 1 atoms
  Time spent = 1.90735e-06 secs
create_atoms 1 single 424337.168584 709459.459459 0.000000
Created 1 atoms
  Time spent = 2.14577e-06 secs
create_atoms 1 single 80415.207604 524149.149149 0.000000
Created 1 atoms
  Time spent = 1.90735e-06 secs
create_atoms 1 single 387443.721861 713213.213213 0.000000
Created 1 atoms
  Time spent = 1.90735e-06 secs
create_atoms 1 single 29264.632316 674424.424424 0.000000
Created 1 atoms
  Time spent = 1.90735e-06 secs
create_atoms 1 single 296023.011506 541416.416416 0.000000
Created 1 atoms
  Time spent = 1.90735e-06 secs
create_atoms 1 single 492746.373187 656781.781782 0.000000
Created 1 atoms
  Time spent = 1.21593e-05 secs
create_atoms 1 single 100050.025013 598098.098098 0.000000
Created 1 atoms
  Time spent = 1.90735e-06 secs
create_atoms 1 single 319159.579790 656906.906907 0.000000
Created 1 atoms
  Time spent = 1.90735e-06 secs
create_atoms 1 single 393071.535768 544044.044044 0.000000
Created 1 atoms
  Time spent = 1.90735e-06 secs
create_atoms 1 single 336168.084042 519019.019019 0.000000
Created 1 atoms
  Time spent = 2.14577e-06 secs
create_atoms 1 single 428339.169585 659534.534535 0.000000
Created 1 atoms
  Time spent = 1.90735e-06 secs
create_atoms 1 single 277638.819410 506756.756757 0.000000
Created 1 atoms
  Time spent = 1.90735e-06 secs
create_atoms 1 single 357928.964482 566941.941942 0.000000
Created 1 atoms
  Time spent = 2.14577e-06 secs
create_atoms 1 single 75412.706353 745870.870871 0.000000
Created 1 atoms
  Time spent = 2.14577e-06 secs
create_atoms 1 single 385192.596298 533408.408408 0.000000
Created 1 atoms
  Time spent = 2.86102e-06 secs
create_atoms 1 single 182466.233117 678428.428428 0.000000
Created 1 atoms
  Time spent = 2.14577e-06 secs
create_atoms 1 single 218609.304652 531531.531532 0.000000
Created 1 atoms
  Time spent = 2.14577e-06 secs
create_atoms 1 single 365057.528764 742992.992993 0.000000
Created 1 atoms
  Time spent = 2.86102e-06 secs
create_atoms 1 single 84042.021011 645895.895896 0.000000
Created 1 atoms
  Time spent = 1.90735e-06 secs
create_atoms 1 single 454352.176088 549924.924925 0.000000
Created 1 atoms
  Time spent = 2.14577e-06 secs
create_atoms 1 single 327163.581791 527277.277277 0.000000
Created 1 atoms
  Time spent = 1.90735e-06 secs
create_atoms 1 single 297648.824412 648898.898899 0.000000
Created 1 atoms
  Time spent = 1.90735e-06 secs
create_atoms 1 single 441470.735368 638013.013013 0.000000
Created 1 atoms
  Time spent = 2.14577e-06 secs
create_atoms 1 single 353676.838419 638263.263263 0.000000
Created 1 atoms
  Time spent = 1.90735e-06 secs
create_atoms 1 single 115182.591296 674799.799800 0.000000
Created 1 atoms
  Time spent = 1.90735e-06 secs
create_atoms 1 single 403951.975988 547297.297297 0.000000
Created 1 atoms
  Time spent = 2.14577e-06 secs
create_atoms 1 single 180215.107554 744494.494494 0.000000
Created 1 atoms
  Time spent = 3.09944e-06 secs
create_atoms 1 single 47773.886943 634759.759760 0.000000
Created 1 atoms
  Time spent = 2.14577e-06 secs
create_atoms 1 single 109554.777389 695445.445445 0.000000
Created 1 atoms
  Time spent = 3.09944e-06 secs
create_atoms 1 single 336043.021511 674424.424424 0.000000
Created 1 atoms
  Time spent = 1.28746e-05 secs
create_atoms 1 single 384442.221111 637637.637638 0.000000
Created 1 atoms
  Time spent = 1.90735e-06 secs
create_atoms 1 single 157953.976988 640640.640641 0.000000
Created 1 atoms
  Time spent = 2.14577e-06 secs
create_atoms 1 single 321035.517759 637262.262262 0.000000
Created 1 atoms
  Time spent = 1.90735e-06 secs
create_atoms 1 single 335792.896448 546921.921922 0.000000
Created 1 atoms
  Time spent = 1.90735e-06 secs
create_atoms 1 single 329539.769885 729979.979980 0.000000
Created 1 atoms
  Time spent = 2.14577e-06 secs
create_atoms 1 single 466858.429215 589464.464464 0.000000
Created 1 atoms
  Time spent = 1.90735e-06 secs
create_atoms 1 single 458104.052026 646271.271271 0.000000
Created 1 atoms
  Time spent = 1.90735e-06 secs
create_atoms 1 single 182966.483242 651026.026026 0.000000
Created 1 atoms
  Time spent = 2.14577e-06 secs
create_atoms 1 single 197723.861931 520395.395395 0.000000
Created 1 atoms
  Time spent = 3.09944e-06 secs
create_atoms 1 single 363931.965983 547797.797798 0.000000
Created 1 atoms
  Time spent = 1.90735e-06 secs
create_atoms 1 single 139444.722361 694069.069069 0.000000
Created 1 atoms
  Time spent = 1.90735e-06 secs
create_atoms 1 single 280890.445223 674549.549550 0.000000
Created 1 atoms
  Time spent = 2.14577e-06 secs
create_atoms 1 single 16383.191596 646896.896897 0.000000
Created 1 atoms
  Time spent = 3.09944e-06 secs
create_atoms 1 single 233616.808404 606731.731732 0.000000
Created 1 atoms
  Time spent = 2.59876e-05 secs
create_atoms 1 single 456103.051526 667542.542543 0.000000
Created 1 atoms
  Time spent = 2.14577e-06 secs
create_atoms 1 single 144822.411206 531406.406406 0.000000
Created 1 atoms
  Time spent = 2.14577e-06 secs
create_atoms 1 single 23386.693347 527777.777778 0.000000
Created 1 atoms
  Time spent = 1.90735e-06 secs
create_atoms 1 single 255627.813907 613488.488488 0.000000
Created 1 atoms
  Time spent = 2.14577e-06 secs
create_atoms 1 single 484867.433717 745620.620621 0.000000
Created 1 atoms
  Time spent = 2.14577e-06 secs
create_atoms 1 single 405077.538769 572072.072072 0.000000
Created 1 atoms
  Time spent = 1.19209e-05 secs
create_atoms 1 single 188219.109555 743368.368368 0.000000
Created 1 atoms
  Time spent = 1.90735e-06 secs
create_atoms 1 single 435467.733867 709709.709710 0.000000
Created 1 atoms
  Time spent = 2.14577e-06 secs
create_atoms 1 single 495122.561281 592842.842843 0.000000
Created 1 atoms
  Time spent = 2.14577e-06 secs
create_atoms 1 single 28264.132066 522022.022022 0.000000
Created 1 atoms
  Time spent = 1.90735e-06 secs
create_atoms 1 single 364057.028514 645520.520521 0.000000
Created 1 atoms
  Time spent = 2.14577e-06 secs
create_atoms 1 single 305277.638819 526776.776777 0.000000
Created 1 atoms
  Time spent = 3.09944e-06 secs
create_atoms 1 single 202601.300650 589464.464464 0.000000
Created 1 atoms
  Time spent = 1.90735e-06 secs
create_atoms 1 single 4377.188594 653903.903904 0.000000
Created 1 atoms
  Time spent = 1.19209e-05 secs
create_atoms 1 single 38144.072036 550175.175175 0.000000
Created 1 atoms
  Time spent = 2.14577e-06 secs
create_atoms 1 single 83916.958479 556306.306306 0.000000
Created 1 atoms
  Time spent = 2.14577e-06 secs
create_atoms 1 single 77413.706853 566441.441441 0.000000
Created 1 atoms
  Time spent = 2.86102e-06 secs
create_atoms 1 single 454977.488744 602852.852853 0.000000
Created 1 atoms
  Time spent = 1.90735e-06 secs
create_atoms 1 single 207978.989495 549799.799800 0.000000
Created 1 atoms
  Time spent = 2.14577e-06 secs
create_atoms 1 single 128314.157079 637012.012012 0.000000
Created 1 atoms
  Time spent = 1.19209e-05 secs
create_atoms 1 single 121810.905453 642892.892893 0.000000
Created 1 atoms
  Time spent = 1.90735e-06 secs
create_atoms 1 single 20510.255128 559184.184184 0.000000
Created 1 atoms
  Time spent = 1.90735e-06 secs
create_atoms 1 single 220110.055028 628128.128128 0.000000
Created 1 atoms
  Time spent = 1.90735e-06 secs
create_atoms 1 single 284642.321161 601976.976977 0.000000
Created 1 atoms
  Time spent = 3.09944e-06 secs
create_atoms 1 single 283141.570785 613738.738739 0.000000
Created 1 atoms
  Time spent = 2.14577e-06 secs
create_atoms 1 single 330790.395198 585335.335335 0.000000
Created 1 atoms
  Time spent = 1.90735e-06 secs
create_atoms 1 single 379564.782391 739239.239239 0.000000
Created 1 atoms
  Time spent = 2.86102e-06 secs
create_atoms 1 single 161455.727864 669169.169169 0.000000
Created 1 atoms
  Time spent = 1.3113e-05 secs
create_atoms 1 single 284767.383692 663788.788789 0.000000
Created 1 atoms
  Time spent = 2.14577e-06 secs
create_atoms 1 single 389694.847424 590465.465465 0.000000
Created 1 atoms
  Time spent = 1.90735e-06 secs
create_atoms 1 single 478739.369685 562437.437437 0.000000
Created 1 atoms
  Time spent = 1.90735e-06 secs
create_atoms 1 single 81165.582791 703453.453453 0.000000
Created 1 atoms
  Time spent = 3.09944e-06 secs
create_atoms 1 single 191345.672836 553303.303303 0.000000
Created 1 atoms
  Time spent = 3.09944e-06 secs
create_atoms 1 single 186593.296648 614364.364364 0.000000
Created 1 atoms
  Time spent = 1.19209e-05 secs
create_atoms 1 single 48149.074537 571196.196196 0.000000
Created 1 atoms
  Time spent = 3.09944e-06 secs
create_atoms 1 single 208479.239620 507257.257257 0.000000
Created 1 atoms
  Time spent = 2.14577e-06 secs
create_atoms 1 single 336168.084042 591341.341341 0.000000
Created 1 atoms
  Time spent = 1.90735e-06 secs
create_atoms 1 single 63031.515758 657532.532533 0.000000
Created 1 atoms
  Time spent = 2.86102e-06 secs
create_atoms 1 single 410330.165083 657907.907908 0.000000
Created 1 atoms
  Time spent = 2.14577e-06 secs
create_atoms 1 single 426463.231616 555805.805806 0.000000
Created 1 atoms
  Time spent = 2.14577e-06 secs
create_atoms 1 single 3376.688344 669669.669670 0.000000
Created 1 atoms
  Time spent = 3.09944e-06 secs
create_atoms 1 single 409079.539770 510260.260260 0.000000
Created 1 atoms
  Time spent = 1.28746e-05 secs
create_atoms 1 single 210105.052526 519269.269269 0.000000
Created 1 atoms
  Time spent = 1.90735e-06 secs
create_atoms 1 single 304902.451226 574824.824825 0.000000
Created 1 atoms
  Time spent = 3.09944e-06 secs
create_atoms 1 single 403451.725863 741741.741742 0.000000
Created 1 atoms
  Time spent = 3.09944e-06 secs
create_atoms 1 single 246748.374187 546421.421421 0.000000
Created 1 atoms
  Time spent = 1.90735e-06 secs
create_atoms 1 single 470485.242621 594969.969970 0.000000
Created 1 atoms
  Time spent = 1.90735e-06 secs
create_atoms 1 single 133441.720860 538663.663664 0.000000
Created 1 atoms
  Time spent = 2.14577e-06 secs
create_atoms 1 single 170335.167584 564939.939940 0.000000
Created 1 atoms
  Time spent = 1.90735e-06 secs
create_atoms 1 single 206603.301651 599474.474474 0.000000
Created 1 atoms
  Time spent = 1.90735e-06 secs
create_atoms 1 single 353551.775888 539789.789790 0.000000
Created 1 atoms
  Time spent = 2.86102e-06 secs
create_atoms 1 single 345672.836418 551801.801802 0.000000
Created 1 atoms
  Time spent = 2.14577e-06 secs
create_atoms 1 single 209354.677339 731981.981982 0.000000
Created 1 atoms
  Time spent = 1.90735e-06 secs
create_atoms 1 single 241870.935468 526401.401401 0.000000
Created 1 atoms
  Time spent = 2.86102e-06 secs
create_atoms 1 single 91420.710355 569944.944945 0.000000
Created 1 atoms
  Time spent = 1.90735e-06 secs
create_atoms 1 single 257628.814407 507757.757758 0.000000
Created 1 atoms
  Time spent = 2.14577e-06 secs
create_atoms 1 single 382066.033017 523773.773774 0.000000
Created 1 atoms
  Time spent = 3.09944e-06 secs
create_atoms 1 single 64032.016008 553553.553554 0.000000
Created 1 atoms
  Time spent = 2.86102e-06 secs
create_atoms 1 single 417708.854427 536161.161161 0.000000
Created 1 atoms
  Time spent = 1.90735e-06 secs
create_atoms 1 single 326288.144072 651526.526527 0.000000
Created 1 atoms
  Time spent = 2.14577e-06 secs
create_atoms 1 single 75787.893947 504004.004004 0.000000
Created 1 atoms
  Time spent = 1.90735e-06 secs
create_atoms 1 single 14757.378689 600600.600601 0.000000
Created 1 atoms
  Time spent = 3.09944e-06 secs
create_atoms 1 single 274887.443722 612862.862863 0.000000
Created 1 atoms
  Time spent = 3.09944e-06 secs
create_atoms 1 single 154577.288644 510010.010010 0.000000
Created 1 atoms
  Time spent = 2.86102e-06 secs
create_atoms 1 single 47273.636818 533783.783784 0.000000
Created 1 atoms
  Time spent = 1.90735e-06 secs
create_atoms 1 single 119309.654827 689064.064064 0.000000
Created 1 atoms
  Time spent = 1.90735e-06 secs
create_atoms 1 single 117183.591796 727352.352352 0.000000
Created 1 atoms
  Time spent = 2.14577e-06 secs
create_atoms 1 single 240370.185093 519894.894895 0.000000
Created 1 atoms
  Time spent = 1.90735e-06 secs
create_atoms 1 single 137568.784392 528278.278278 0.000000
Created 1 atoms
  Time spent = 2.86102e-06 secs
create_atoms 1 single 211230.615308 569069.069069 0.000000
Created 1 atoms
  Time spent = 1.90735e-06 secs
create_atoms 1 single 8129.064532 535410.410410 0.000000
Created 1 atoms
  Time spent = 2.14577e-06 secs
create_atoms 1 single 242121.060530 674799.799800 0.000000
Created 1 atoms
  Time spent = 2.14577e-06 secs
create_atoms 1 single 68409.204602 644894.894895 0.000000
Created 1 atoms
  Time spent = 1.90735e-06 secs
create_atoms 1 single 264757.378689 687937.937938 0.000000
Created 1 atoms
  Time spent = 1.90735e-06 secs
create_atoms 1 single 130065.032516 560560.560561 0.000000
Created 1 atoms
  Time spent = 2.14577e-06 secs
create_atoms 1 single 150825.412706 645395.395395 0.000000
Created 1 atoms
  Time spent = 2.14577e-06 secs
create_atoms 1 single 414582.291146 740240.240240 0.000000
Created 1 atoms
  Time spent = 1.90735e-06 secs
create_atoms 1 single 411830.915458 549799.799800 0.000000
Created 1 atoms
  Time spent = 1.90735e-06 secs
create_atoms 1 single 299649.824912 640515.515516 0.000000
Created 1 atoms
  Time spent = 3.09944e-06 secs
create_atoms 1 single 321035.517759 744369.369369 0.000000
Created 1 atoms
  Time spent = 3.09944e-06 secs
create_atoms 1 single 91795.897949 647647.647648 0.000000
Created 1 atoms
  Time spent = 1.90735e-06 secs
create_atoms 1 single 430215.107554 735235.235235 0.000000
Created 1 atoms
  Time spent = 2.86102e-06 secs
create_atoms 1 single 195847.923962 715840.840841 0.000000
Created 1 atoms
  Time spent = 2.14577e-06 secs
create_atoms 1 single 290145.072536 653778.778779 0.000000
Created 1 atoms
  Time spent = 3.09944e-06 secs
create_atoms 1 single 347923.961981 619244.244244 0.000000
Created 1 atoms
  Time spent = 2.86102e-06 secs
create_atoms 1 single 79914.957479 589464.464464 0.000000
Created 1 atoms
  Time spent = 1.19209e-05 secs
create_atoms 1 single 60030.015008 537537.537538 0.000000
Created 1 atoms
  Time spent = 1.28746e-05 secs
create_atoms 1 single 246498.249125 736986.986987 0.000000
Created 1 atoms
  Time spent = 1.90735e-06 secs
create_atoms 1 single 248749.374687 570695.695696 0.000000
Created 1 atoms
  Time spent = 3.09944e-06 secs
create_atoms 1 single 464982.491246 550800.800801 0.000000
Created 1 atoms
  Time spent = 2.14577e-06 secs
create_atoms 1 single 301025.512756 509009.009009 0.000000
Created 1 atoms
  Time spent = 1.90735e-06 secs
create_atoms 1 single 43646.823412 602727.727728 0.000000
Created 1 atoms
  Time spent = 1.90735e-06 secs
create_atoms 1 single 159204.602301 624624.624625 0.000000
Created 1 atoms
  Time spent = 2.14577e-06 secs
create_atoms 1 single 147073.536768 621746.746747 0.000000
Created 1 atoms
  Time spent = 3.09944e-06 secs
create_atoms 1 single 36768.384192 728603.603604 0.000000
Created 1 atoms
  Time spent = 2.86102e-06 secs
create_atoms 1 single 166958.479240 654029.029029 0.000000
Created 1 atoms
  Time spent = 1.90735e-06 secs
create_atoms 1 single 418334.167084 735235.235235 0.000000
Created 1 atoms
  Time spent = 2.86102e-06 secs
create_atoms 1 single 50400.200100 556306.306306 0.000000
Created 1 atoms
  Time spent = 1.21593e-05 secs
create_atoms 1 single 299649.824912 561186.186186 0.000000
Created 1 atoms
  Time spent = 3.09944e-06 secs
create_atoms 1 single 237118.559280 619369.369369 0.000000
Created 1 atoms
  Time spent = 2.86102e-06 secs
create_atoms 1 single 479489.744872 630005.005005 0.000000
Created 1 atoms
  Time spent = 1.90735e-06 secs
create_atoms 1 single 311405.702851 615740.740741 0.000000
Created 1 atoms
  Time spent = 2.86102e-06 secs
create_atoms 1 single 372186.093047 637387.387387 0.000000
Created 1 atoms
  Time spent = 3.09944e-06 secs
create_atoms 1 single 7628.814407 623998.998999 0.000000
Created 1 atoms
  Time spent = 3.09944e-06 secs
create_atoms 1 single 209479.739870 588338.338338 0.000000
Created 1 atoms
  Time spent = 2.86102e-06 secs
create_atoms 1 single 180840.420210 515390.390390 0.000000
Created 1 atoms
  Time spent = 1.90735e-06 secs
create_atoms 1 single 123561.780890 612862.862863 0.000000
Created 1 atoms
  Time spent = 2.14577e-06 secs
create_atoms 1 single 292896.448224 625250.250250 0.000000
Created 1 atoms
  Time spent = 1.21593e-05 secs
create_atoms 1 single 15632.816408 519394.394394 0.000000
Created 1 atoms
  Time spent = 2.86102e-06 secs
create_atoms 1 single 322036.018009 508258.258258 0.000000
Created 1 atoms
  Time spent = 1.90735e-06 secs
create_atoms 1 single 199474.737369 553053.053053 0.000000
Created 1 atoms
  Time spent = 2.86102e-06 secs
create_atoms 1 single 408579.289645 707082.082082 0.000000
Created 1 atoms
  Time spent = 3.09944e-06 secs
create_atoms 1 single 204227.113557 571821.821822 0.000000
Created 1 atoms
  Time spent = 2.14577e-06 secs
create_atoms 1 single 12381.190595 715590.590591 0.000000
Created 1 atoms
  Time spent = 3.09944e-06 secs
create_atoms 1 single 36518.259130 526401.401401 0.000000
Created 1 atoms
  Time spent = 1.90735e-06 secs
create_atoms 1 single 401575.787894 606231.231231 0.000000
Created 1 atoms
  Time spent = 1.28746e-05 secs
create_atoms 1 single 354927.463732 743993.993994 0.000000
Created 1 atoms
  Time spent = 3.09944e-06 secs
create_atoms 1 single 318534.267134 582832.832833 0.000000
Created 1 atoms
  Time spent = 3.09944e-06 secs
create_atoms 1 single 230990.495248 654904.904905 0.000000
Created 1 atoms
  Time spent = 2.86102e-06 secs
create_atoms 1 single 13506.753377 654904.904905 0.000000
Created 1 atoms
  Time spent = 1.90735e-06 secs
create_atoms 1 single 464982.491246 677552.552553 0.000000
Created 1 atoms
  Time spent = 2.14577e-06 secs
create_atoms 1 single 101675.837919 653028.028028 0.000000
Created 1 atoms
  Time spent = 2.14577e-06 secs
create_atoms 1 single 489994.997499 663038.038038 0.000000
Created 1 atoms
  Time spent = 3.09944e-06 secs
create_atoms 1 single 82791.395698 516266.266266 0.000000
Created 1 atoms
  Time spent = 1.90735e-06 secs
create_atoms 1 single 462606.303152 621996.996997 0.000000
Created 1 atoms
  Time spent = 1.28746e-05 secs
create_atoms 1 single 142571.285643 656031.031031 0.000000
Created 1 atoms
  Time spent = 1.4782e-05 secs
create_atoms 1 single 31765.882941 734859.859860 0.000000
Created 1 atoms
  Time spent = 1.90735e-06 secs
create_atoms 1 single 52401.200600 613363.363363 0.000000
Created 1 atoms
  Time spent = 1.28746e-05 secs
create_atoms 1 single 367808.904452 696821.821822 0.000000
Created 1 atoms
  Time spent = 1.90735e-06 secs
create_atoms 1 single 463481.740870 607857.857858 0.000000
Created 1 atoms
  Time spent = 2.14577e-06 secs
create_atoms 1 single 80290.145073 550050.050050 0.000000
Created 1 atoms
  Time spent = 3.09944e-06 secs
create_atoms 1 single 42896.448224 701951.951952 0.000000
Created 1 atoms
  Time spent = 2.86102e-06 secs
create_atoms 1 single 216608.304152 740865.865866 0.000000
Created 1 atoms
  Time spent = 1.28746e-05 secs
create_atoms 1 single 388194.097049 739614.614615 0.000000
Created 1 atoms
  Time spent = 1.90735e-06 secs
create_atoms 1 single 66033.016508 512762.762763 0.000000
Created 1 atoms
  Time spent = 3.09944e-06 secs
create_atoms 1 single 266508.254127 575325.325325 0.000000
Created 1 atoms
  Time spent = 2.14577e-06 secs
create_atoms 1 single 200725.362681 505380.380380 0.000000
Created 1 atoms
  Time spent = 2.86102e-06 secs
create_atoms 1 single 159704.852426 593593.593594 0.000000
Created 1 atoms
  Time spent = 2.86102e-06 secs
create_atoms 1 single 390320.160080 505880.880881 0.000000
Created 1 atoms
  Time spent = 2.86102e-06 secs
create_atoms 1 single 316908.454227 608858.858859 0.000000
Created 1 atoms
  Time spent = 1.21593e-05 secs
create_atoms 1 single 2876.438219 697072.072072 0.000000
Created 1 atoms
  Time spent = 2.14577e-06 secs
create_atoms 1 single 122936.468234 554554.554555 0.000000
Created 1 atoms
  Time spent = 2.86102e-06 secs
create_atoms 1 single 107053.526763 718718.718719 0.000000
Created 1 atoms
  Time spent = 2.86102e-06 secs
create_atoms 1 single 283766.883442 561311.311311 0.000000
Created 1 atoms
  Time spent = 1.3113e-05 secs
create_atoms 1 single 127563.781891 606981.981982 0.000000
Created 1 atoms
  Time spent = 2.14577e-06 secs
create_atoms 1 single 266883.441721 697697.697698 0.000000
Created 1 atoms
  Time spent = 3.09944e-06 secs
create_atoms 1 single 29264.632316 556556.556557 0.000000
Created 1 atoms
  Time spent = 3.09944e-06 secs
create_atoms 1 single 339794.897449 612112.112112 0.000000
Created 1 atoms
  Time spent = 2.86102e-06 secs
create_atoms 1 single 466858.429215 737862.862863 0.000000
Created 1 atoms
  Time spent = 1.90735e-06 secs
create_atoms 1 single 216108.054027 512012.012012 0.000000
Created 1 atoms
  Time spent = 3.09944e-06 secs
create_atoms 1 single 37268.634317 742242.242242 0.000000
Created 1 atoms
  Time spent = 3.09944e-06 secs
create_atoms 1 single 57653.826913 560935.935936 0.000000
Created 1 atoms
  Time spent = 3.09944e-06 secs
create_atoms 1 single 59779.889945 516266.266266 0.000000
Created 1 atoms
  Time spent = 2.86102e-06 secs
create_atoms 1 single 91420.710355 690815.815816 0.000000
Created 1 atoms
  Time spent = 1.90735e-06 secs
create_atoms 1 single 143571.785893 699199.199199 0.000000
Created 1 atoms
  Time spent = 1.21593e-05 secs
create_atoms 1 single 142821.410705 555430.430430 0.000000
Created 1 atoms
  Time spent = 3.09944e-06 secs
create_atoms 1 single 180965.482741 504879.879880 0.000000
Created 1 atoms
  Time spent = 1.90735e-06 secs
create_atoms 1 single 81665.832916 695445.445445 0.000000
Created 1 atoms
  Time spent = 2.86102e-06 secs
create_atoms 1 single 437093.546773 694569.569570 0.000000
Created 1 atoms
  Time spent = 3.09944e-06 secs
create_atoms 1 single 259129.564782 730855.855856 0.000000
Created 1 atoms
  Time spent = 2.14577e-06 secs
create_atoms 1 single 374312.156078 709084.084084 0.000000
Created 1 atoms
  Time spent = 3.09944e-06 secs
create_atoms 1 single 371935.967984 525025.025025 0.000000
Created 1 atoms
  Time spent = 1.3113e-05 secs
create_atoms 1 single 55527.763882 641266.266266 0.000000
Created 1 atoms
  Time spent = 1.90735e-06 secs
create_atoms 1 single 23511.755878 590090.090090 0.000000
Created 1 atoms
  Time spent = 2.86102e-06 secs
create_atoms 1 single 350425.212606 655030.030030 0.000000
Created 1 atoms
  Time spent = 3.09944e-06 secs
create_atoms 1 single 24137.068534 744869.869870 0.000000
Created 1 atoms
  Time spent = 3.09944e-06 secs
create_atoms 1 single 165957.978989 620620.620621 0.000000
Created 1 atoms
  Time spent = 3.09944e-06 secs
create_atoms 1 single 31140.570285 637637.637638 0.000000
Created 1 atoms
  Time spent = 1.90735e-06 secs
create_atoms 1 single 442471.235618 581831.831832 0.000000
Created 1 atoms
  Time spent = 2.86102e-06 secs
create_atoms 1 single 230990.495248 551176.176176 0.000000
Created 1 atoms
  Time spent = 2.09808e-05 secs
create_atoms 1 single 263756.878439 663788.788789 0.000000
Created 1 atoms
  Time spent = 3.09944e-06 secs
create_atoms 1 single 420960.480240 651151.151151 0.000000
Created 1 atoms
  Time spent = 1.21593e-05 secs
create_atoms 1 single 142696.348174 586961.961962 0.000000
Created 1 atoms
  Time spent = 2.86102e-06 secs
create_atoms 1 single 85042.521261 608483.483483 0.000000
Created 1 atoms
  Time spent = 2.86102e-06 secs
create_atoms 1 single 10505.252626 595595.595596 0.000000
Created 1 atoms
  Time spent = 1.90735e-06 secs
create_atoms 1 single 112431.215608 623998.998999 0.000000
Created 1 atoms
  Time spent = 3.09944e-06 secs
create_atoms 1 single 256378.189095 546921.921922 0.000000
Created 1 atoms
  Time spent = 3.09944e-06 secs
create_atoms 1 single 62031.015508 592467.467467 0.000000
Created 1 atoms
  Time spent = 1.3113e-05 secs
create_atoms 1 single 430215.107554 550800.800801 0.000000
Created 1 atoms
  Time spent = 1.90735e-06 secs
create_atoms 1 single 30640.320160 580705.705706 0.000000
Created 1 atoms
  Time spent = 2.86102e-06 secs
create_atoms 1 single 434592.296148 718468.468468 0.000000
Created 1 atoms
  Time spent = 3.09944e-06 secs
create_atoms 1 single 24512.256128 734609.609610 0.000000
Created 1 atoms
  Time spent = 1.3113e-05 secs
create_atoms 1 single 398074.037019 566816.816817 0.000000
Created 1 atoms
  Time spent = 3.09944e-06 secs
create_atoms 1 single 252751.375688 577577.577578 0.000000
Created 1 atoms
  Time spent = 2.86102e-06 secs
create_atoms 1 single 284392.196098 515765.765766 0.000000
Created 1 atoms
  Time spent = 2.86102e-06 secs
create_atoms 1 single 486868.434217 635135.135135 0.000000
Created 1 atoms
  Time spent = 2.86102e-06 secs
create_atoms 1 single 53401.700850 708333.333333 0.000000
Created 1 atoms
  Time spent = 3.09944e-06 secs
create_atoms 1 single 427588.794397 692192.192192 0.000000
Created 1 atoms
  Time spent = 1.3113e-05 secs
create_atoms 1 single 236493.246623 683558.558559 0.000000
Created 1 atoms
  Time spent = 2.14577e-06 secs
create_atoms 1 single 166083.041521 578203.203203 0.000000
Created 1 atoms
  Time spent = 3.09944e-06 secs
create_atoms 1 single 339419.709855 585085.085085 0.000000
Created 1 atoms
  Time spent = 3.09944e-06 secs
create_atoms 1 single 395197.598799 578828.828829 0.000000
Created 1 atoms
  Time spent = 1.28746e-05 secs
create_atoms 1 single 244497.248624 633508.508509 0.000000
Created 1 atoms
  Time spent = 1.90735e-06 secs
create_atoms 1 single 247748.874437 745745.745746 0.000000
Created 1 atoms
  Time spent = 3.09944e-06 secs
create_atoms 1 single 255627.813907 586086.086086 0.000000
Created 1 atoms
  Time spent = 3.09944e-06 secs
create_atoms 1 single 112181.090545 722597.597598 0.000000
Created 1 atoms
  Time spent = 3.09944e-06 secs
create_atoms 1 single 330665.332666 505630.630631 0.000000
Created 1 atoms
  Time spent = 2.86102e-06 secs
create_atoms 1 single 138694.347174 737362.362362 0.000000
Created 1 atoms
  Time spent = 2.86102e-06 secs
create_atoms 1 single 112681.340670 515015.015015 0.000000
Created 1 atoms
  Time spent = 2.86102e-06 secs
create_atoms 1 single 426088.044022 725475.475475 0.000000
Created 1 atoms
  Time spent = 1.90735e-06 secs
create_atoms 1 single 171710.855428 607982.982983 0.000000
Created 1 atoms
  Time spent = 3.09944e-06 secs
create_atoms 1 single 385942.971486 595720.720721 0.000000
Created 1 atoms
  Time spent = 3.09944e-06 secs
create_atoms 1 single 309029.514757 621371.371371 0.000000
Created 1 atoms
  Time spent = 3.09944e-06 secs
create_atoms 1 single 438344.172086 565315.315315 0.000000
Created 1 atoms
  Time spent = 3.09944e-06 secs
create_atoms 1 single 470110.055028 711086.086086 0.000000
Created 1 atoms
  Time spent = 3.09944e-06 secs
create_atoms 1 single 237118.559280 640140.140140 0.000000
Created 1 atoms
  Time spent = 3.09944e-06 secs
create_atoms 1 single 210230.115058 623373.373373 0.000000
Created 1 atoms
  Time spent = 3.09944e-06 secs
create_atoms 1 single 310155.077539 685560.560561 0.000000
Created 1 atoms
  Time spent = 1.90735e-06 secs
create_atoms 1 single 321035.517759 674299.299299 0.000000
Created 1 atoms
  Time spent = 1.90735e-06 secs
create_atoms 1 single 378439.219610 634509.509510 0.000000
Created 1 atoms
  Time spent = 2.86102e-06 secs
create_atoms 1 single 342296.148074 545170.170170 0.000000
Created 1 atoms
  Time spent = 2.86102e-06 secs
create_atoms 1 single 44022.011006 586961.961962 0.000000
Created 1 atoms
  Time spent = 3.09944e-06 secs
create_atoms 1 single 291270.635318 664539.539540 0.000000
Created 1 atoms
  Time spent = 3.09944e-06 secs
create_atoms 1 single 97423.711856 579704.704705 0.000000
Created 1 atoms
  Time spent = 3.09944e-06 secs
create_atoms 1 single 190470.235118 516266.266266 0.000000
Created 1 atoms
  Time spent = 3.09944e-06 secs
create_atoms 1 single 4877.438719 503003.003003 0.000000
Created 1 atoms
  Time spent = 3.09944e-06 secs
create_atoms 1 single 20135.067534 627252.252252 0.000000
Created 1 atoms
  Time spent = 3.09944e-06 secs
create_atoms 1 single 391195.597799 734484.484484 0.000000
Created 1 atoms
  Time spent = 2.86102e-06 secs
create_atoms 1 single 382816.408204 666791.791792 0.000000
Created 1 atoms
  Time spent = 2.86102e-06 secs
[...]
  267900    1028.5622     5000 1.7225132e+13       500000 
  268000    1028.9872     5000 1.7215533e+13       500000 
  268100    1029.3999     5000 1.7218468e+13       500000 
  268200    1029.8272     5000 1.7209178e+13       500000 
  268300    1030.2449     5000 1.7193959e+13       500000 
  268400    1030.6594     5000 1.7183028e+13       500000 
  268500    1031.0926     5000 1.7179276e+13       500000 
  268600    1031.5056     5000 1.7181218e+13       500000 
  268700    1031.9348     5000 1.7177978e+13       500000 
  268800    1032.3583     5000 1.9451317e+13       500000 
  268900    1032.7961     5000 1.8820109e+13       500000 
  269000    1033.2447     5000 1.807344e+13       500000 
  269100    1033.6577     5000 1.7577098e+13       500000 
  269200    1034.0674     5000 1.7336136e+13       500000 
  269300    1034.4793     5000 1.7283915e+13       500000 
  269400    1034.8899     5000 1.7247421e+13       500000 
  269500    1035.3185     5000 1.7196966e+13       500000 
  269600    1035.7348     5000 1.7183498e+13       500000 
  269700    1036.1453     5000 1.7161305e+13       500000 
  269800    1036.5504     5000 1.7153403e+13       500000 
  269900    1036.9707     5000 1.7150721e+13       500000 
  270000    1037.4103     5000 1.7147097e+13       500000 
  270100    1037.8333     5000 1.7144503e+13       500000 
  270200    1038.2362     5000 1.7139633e+13       500000 
  270300     1038.644     5000 1.7136473e+13       500000 
  270400    1039.0492     5000 1.7133068e+13       500000 
  270500     1039.473     5000 1.7130253e+13       500000 
  270600    1039.8941     5000 1.7128521e+13       500000 
  270700    1040.3091     5000 1.7125757e+13       500000 
  270800    1040.7267     5000 1.7128877e+13       500000 
  270900    1041.1487     5000 1.7124284e+13       500000 
  271000    1041.5743     5000 1.7123044e+13       500000 
  271100    1041.9879     5000 1.7120656e+13       500000 
  271200    1042.4034     5000 1.7119193e+13       500000 
  271300    1042.8385     5000 1.7115594e+13       500000 
  271400    1043.2604     5000 1.7112173e+13       500000 
  271500    1043.6955     5000 1.710741e+13       500000 
  271600    1044.1146     5000 1.7104011e+13       500000 
  271700    1044.5259     5000 1.710053e+13       500000 
  271800    1044.9341     5000 1.7106331e+13       500000 
  271900    1045.3419     5000 1.7101585e+13       500000 
  272000     1045.764     5000 1.7103427e+13       500000 
  272100    1046.1689     5000 1.7101564e+13       500000 
  272200    1046.5737     5000 1.7096881e+13       500000 
  272300    1046.9817     5000 1.7098665e+13       500000 
  272400    1047.3964     5000 1.7100719e+13       500000 
  272500    1047.8024     5000 1.7111579e+13       500000 
  272600    1048.2281     5000 1.7117092e+13       500000 
  272700    1048.6486     5000 1.7119604e+13       500000 
  272800    1049.0675     5000 1.7106684e+13       500000 
  272900    1049.4902     5000 1.7106655e+13       500000 
  273000    1049.9301     5000 1.7098711e+13       500000 
  273100    1050.3481     5000 1.7088275e+13       500000 
  273200    1050.7635     5000 1.7088781e+13       500000 
  273300    1051.1815     5000 1.7085327e+13       500000 
  273400    1051.5961     5000 1.7074891e+13       500000 
  273500    1052.0349     5000 1.7080917e+13       500000 
  273600    1052.4548     5000 1.7067355e+13       500000 
  273700    1052.8726     5000 1.7064311e+13       500000 
  273800     1053.296     5000 1.7067379e+13       500000 
  273900    1053.7124     5000 1.7058282e+13       500000 
  274000    1054.1491     5000 1.7049357e+13       500000 
  274100    1054.5631     5000 1.7048022e+13       500000 
  274200    1054.9826     5000 1.7055956e+13       500000 
  274300    1055.4066     5000 1.7074289e+13       500000 
  274400    1055.8269     5000 1.7069127e+13       500000 
  274500    1056.2584     5000 1.7074211e+13       500000 
  274600    1056.6661     5000 1.7065964e+13       500000 
  274700    1057.0952     5000 1.7063767e+13       500000 
  274800    1057.5166     5000 1.7060076e+13       500000 
  274900    1057.9321     5000 1.7055206e+13       500000 
  275000    1058.3738     5000 1.7046296e+13       500000 
  275100    1058.7998     5000 1.7043912e+13       500000 
  275200    1059.2152     5000 1.7026782e+13       500000 
  275300    1059.6282     5000 1.7019589e+13       500000 
  275400    1060.0468     5000 1.7009134e+13       500000 
  275500    1060.4766     5000 1.7015599e+13       500000 
  275600     1060.883     5000 1.7729938e+13       500000 
  275700    1061.3118     5000 1.7064878e+13       500000 
  275800    1061.7356     5000 1.7082221e+13       500000 
  275900    1062.1729     5000 1.709295e+13       500000 
  276000    1062.6142     5000 1.7052961e+13       500000 
  276100    1063.0402     5000 1.703007e+13       500000 
  276200    1063.4653     5000 1.7019636e+13       500000 
  276300    1063.8872     5000 1.711481e+13       500000 
  276400     1064.315     5000 1.7024295e+13       500000 
  276500    1064.7514     5000 1.7046526e+13       500000 
  276600    1065.1773     5000 1.7050028e+13       500000 
  276700     1065.598     5000 1.7029554e+13       500000 
  276800    1066.0116     5000 1.701828e+13       500000 
  276900    1066.4396     5000 1.7010917e+13       500000 
  277000    1066.8896     5000 1.7003357e+13       500000 
  277100    1067.3099     5000 1.700453e+13       500000 
  277200    1067.7359     5000 1.6995991e+13       500000 
  277300    1068.1621     5000 1.6988791e+13       500000 
  277400    1068.5873     5000 1.6981257e+13       500000 
  277500    1069.0342     5000 1.6980587e+13       500000 
  277600    1069.4591     5000 1.6977347e+13       500000 
  277700     1069.887     5000 1.6983638e+13       500000 
  277800    1070.3051     5000 1.6962393e+13       500000 
  277900    1070.7194     5000 1.6940785e+13       500000 
  278000    1071.1553     5000 1.6933348e+13       500000 
  278100    1071.5797     5000 1.699334e+13       500000 
  278200    1071.9991     5000 1.6944052e+13       500000 
  278300    1072.4273     5000 1.693387e+13       500000 
  278400    1072.8473     5000 1.6933015e+13       500000 
  278500    1073.2888     5000 1.6935179e+13       500000 
  278600     1073.715     5000 1.6940712e+13       500000 
  278700    1074.1364     5000 1.6956484e+13       500000 
  278800    1074.5571     5000 1.6941605e+13       500000 
  278900    1074.9737     5000 1.6937053e+13       500000 
  279000    1075.4089     5000 1.6922075e+13       500000 
  279100    1075.8311     5000 1.6930021e+13       500000 
  279200    1076.2565     5000 1.7473946e+13       500000 
  279300    1076.6802     5000 1.6927723e+13       500000 
  279400    1077.1174     5000 1.6915275e+13       500000 
  279500    1077.5382     5000 1.6912803e+13       500000 
  279600    1077.9614     5000 1.6904318e+13       500000 
  279700    1078.3932     5000 1.6897088e+13       500000 
  279800    1078.8113     5000 1.6892043e+13       500000 
  279900    1079.2362     5000 1.6886341e+13       500000 
  280000    1079.6671     5000 1.6882334e+13       500000 
  280100    1080.0853     5000 1.6877193e+13       500000 
  280200    1080.5032     5000 1.687244e+13       500000 
  280300    1080.9405     5000 1.6868149e+13       500000 
  280400    1081.3667     5000 1.686404e+13       500000 
  280500    1081.8029     5000 1.6881144e+13       500000 
  280600    1082.2132     5000 1.6894079e+13       500000 
  280700    1082.6371     5000 1.6891413e+13       500000 
  280800    1083.0457     5000 1.6887261e+13       500000 
  280900    1083.4723     5000 1.7205754e+13       500000 
  281000    1083.8989     5000 1.6906412e+13       500000 
  281100    1084.3408     5000 1.6984369e+13       500000 
  281200    1084.7647     5000 1.6936275e+13       500000 
  281300    1085.1827     5000 1.7869233e+13       500000 
  281400    1085.6137     5000 1.6893189e+13       500000 
  281500    1086.0601     5000 1.6920534e+13       500000 
  281600    1086.4755     5000 1.6912237e+13       500000 
  281700    1086.9031     5000 1.6925152e+13       500000 
  281800    1087.3272     5000 1.6923403e+13       500000 
  281900    1087.7588     5000 1.691939e+13       500000 
  282000     1088.207     5000 1.6916528e+13       500000 
  282100     1088.632     5000 1.6927391e+13       500000 
  282200    1089.0552     5000 1.6924616e+13       500000 
  282300    1089.4668     5000  1.69283e+13       500000 
  282400     1089.881     5000 1.6926481e+13       500000 
  282500     1090.311     5000 1.6925876e+13       500000 
  282600    1090.7358     5000 1.6917534e+13       500000 
  282700    1091.1538     5000 1.6903801e+13       500000 
  282800    1091.5676     5000 1.6895427e+13       500000 
  282900    1091.9967     5000 1.6888955e+13       500000 
  283000    1092.4361     5000 1.6875493e+13       500000 
  283100    1092.8622     5000 1.6871046e+13       500000 
  283200    1093.2952     5000 1.6865212e+13       500000 
  283300    1093.7302     5000  1.68563e+13       500000 
  283400    1094.1556     5000 1.6865359e+13       500000 
  283500    1094.6088     5000 1.6869139e+13       500000 
  283600    1095.0366     5000 1.6862498e+13       500000 
  283700    1095.4617     5000 1.6854896e+13       500000 
  283800    1095.8922     5000 1.6848617e+13       500000 
  283900    1096.3198     5000 1.6846846e+13       500000 
  284000    1096.7599     5000 1.6848573e+13       500000 
  284100    1097.1836     5000 1.6833907e+13       500000 
  284200    1097.6009     5000 1.686978e+13       500000 
  284300    1098.0442     5000 1.7953022e+13       500000 
  284400    1098.4721     5000 1.7116224e+13       500000 
  284500    1098.9132     5000 1.6930405e+13       500000 
  284600    1099.3296     5000 1.6921972e+13       500000 
  284700    1099.7442     5000 1.6875178e+13       500000 
  284800    1100.1846     5000 1.6835197e+13       500000 
  284900    1100.6151     5000 1.701153e+13       500000 
  285000    1101.0499     5000 1.6873437e+13       500000 
  285100    1101.4728     5000 1.6833611e+13       500000 
  285200    1101.9068     5000 1.6835275e+13       500000 
  285300    1102.3387     5000 1.683377e+13       500000 
  285400    1102.7792     5000 1.6838961e+13       500000 
  285500    1103.2294     5000 1.6836782e+13       500000 
  285600    1103.6657     5000 1.6830359e+13       500000 
  285700    1104.0875     5000 1.9100241e+13       500000 
  285800    1104.5218     5000 1.7726627e+13       500000 
  285900    1104.9488     5000 1.6943472e+13       500000 
  286000    1105.3941     5000 1.690925e+13       500000 
  286100    1105.8199     5000 1.688639e+13       500000 
  286200    1106.2418     5000 1.6842677e+13       500000 
  286300    1106.6713     5000 1.6803321e+13       500000 
  286400    1107.0853     5000 1.6799567e+13       500000 
  286500    1107.5245     5000 1.6795118e+13       500000 
  286600     1107.943     5000 1.677406e+13       500000 
  286700    1108.3747     5000 1.7104616e+13       500000 
  286800    1108.8108     5000 1.6790507e+13       500000 
  286900    1109.2329     5000 1.6760949e+13       500000 
  287000    1109.6776     5000 1.675208e+13       500000 
  287100    1110.0882     5000 1.6750699e+13       500000 
  287200    1110.5128     5000 1.6756462e+13       500000 
  287300    1110.9509     5000 1.675271e+13       500000 
  287400    1111.3863     5000 1.6742494e+13       500000 
  287500     1111.833     5000 1.6737997e+13       500000 
  287600    1112.2597     5000 1.6741277e+13       500000 
  287700    1112.6975     5000 1.6719513e+13       500000 
  287800    1113.1237     5000 1.6715058e+13       500000 
  287900     1113.551     5000 1.6712073e+13       500000 
  288000    1113.9904     5000 1.6719492e+13       500000 
  288100    1114.4118     5000 1.6718439e+13       500000 
  288200    1114.8387     5000 1.6713432e+13       500000 
  288300    1115.2709     5000 1.6863664e+13       500000 
  288400    1115.7045     5000 1.6725179e+13       500000 
  288500    1116.1528     5000 1.6725697e+13       500000 
  288600    1116.5786     5000 1.6717695e+13       500000 
  288700    1116.9935     5000 1.6718082e+13       500000 
  288800    1117.4105     5000 1.6708389e+13       500000 
  288900    1117.8406     5000 1.6696972e+13       500000 
  289000    1118.2682     5000 1.669111e+13       500000 
  289100    1118.7054     5000 1.6690252e+13       500000 
  289200    1119.1298     5000 1.6693849e+13       500000 
  289300    1119.5656     5000 1.6686928e+13       500000 
  289400     1119.989     5000 1.6967221e+13       500000 
  289500    1120.4408     5000 1.6675837e+13       500000 
  289600     1120.863     5000 1.6676505e+13       500000 
  289700    1121.2794     5000 1.6671449e+13       500000 
  289800    1121.6934     5000 1.6670337e+13       500000 
  289900    1122.1196     5000 1.670438e+13       500000 
  290000    1122.5539     5000 1.6669178e+13       500000 
  290100    1122.9801     5000 1.6823634e+13       500000 
  290200    1123.4078     5000 1.6672431e+13       500000 
  290300     1123.837     5000 1.6659104e+13       500000 
  290400    1124.2603     5000 1.6659625e+13       500000 
  290500    1124.6888     5000 1.6649638e+13       500000 
  290600    1125.1151     5000 1.6650349e+13       500000 
  290700    1125.5526     5000 1.6675481e+13       500000 
  290800    1125.9733     5000 1.6672641e+13       500000 
  290900    1126.4017     5000 1.6666857e+13       500000 
  291000    1126.8417     5000 1.6668048e+13       500000 
  291100    1127.2802     5000 1.6669172e+13       500000 
  291200    1127.7122     5000 1.6667602e+13       500000 
  291300    1128.1451     5000 1.6741432e+13       500000 
  291400    1128.5644     5000 1.6722635e+13       500000 
  291500    1129.0205     5000 1.6716814e+13       500000 
  291600    1129.4568     5000 1.6702416e+13       500000 
  291700    1129.8908     5000 1.6687774e+13       500000 
  291800    1130.3106     5000 1.6675665e+13       500000 
  291900    1130.7316     5000 1.6671433e+13       500000 
  292000     1131.173     5000 1.6660666e+13       500000 
  292100    1131.6019     5000 1.6651507e+13       500000 
  292200    1132.0188     5000 1.6649278e+13       500000 
  292300    1132.4484     5000 1.6645591e+13       500000 
  292400    1132.8809     5000 1.6651553e+13       500000 
  292500    1133.3167     5000 1.6650577e+13       500000 
  292600    1133.7517     5000 1.6658801e+13       500000 
  292700    1134.1653     5000 1.6667163e+13       500000 
  292800    1134.5953     5000 1.6670111e+13       500000 
  292900    1135.0106     5000 1.666744e+13       500000 
  293000    1135.4476     5000 1.6663907e+13       500000 
  293100    1135.8542     5000 1.6663158e+13       500000 
  293200    1136.2713     5000 1.664757e+13       500000 
  293300    1136.7063     5000 1.6637883e+13       500000 
  293400    1137.1311     5000 1.6622931e+13       500000 
  293500     1137.587     5000 1.6610498e+13       500000 
  293600    1138.0157     5000 1.6602119e+13       500000 
  293700    1138.4373     5000 1.6601572e+13       500000 
  293800    1138.8738     5000 1.6596594e+13       500000 
  293900    1139.2822     5000 1.6606989e+13       500000 
  294000     1139.719     5000 1.6613498e+13       500000 
  294100    1140.1361     5000 1.6610885e+13       500000 
  294200    1140.5689     5000 1.6598445e+13       500000 
  294300    1140.9954     5000 1.6598718e+13       500000 
  294400    1141.4284     5000 1.659465e+13       500000 
  294500    1141.8497     5000 1.6591805e+13       500000 
  294600    1142.2736     5000 1.6588206e+13       500000 
  294700    1142.6994     5000 1.6590101e+13       500000 
  294800    1143.1217     5000 1.6590899e+13       500000 
  294900    1143.5369     5000 1.6593039e+13       500000 
  295000    1143.9798     5000 1.6594753e+13       500000 
  295100    1144.4033     5000 1.6588744e+13       500000 
  295200    1144.8358     5000 1.658044e+13       500000 
  295300    1145.2635     5000 1.6603448e+13       500000 
  295400    1145.6781     5000 1.6609777e+13       500000 
  295500    1146.1303     5000 1.6591034e+13       500000 
  295600     1146.556     5000 1.6585825e+13       500000 
  295700    1146.9781     5000 1.6566203e+13       500000 
  295800    1147.3988     5000 1.6560408e+13       500000 
  295900    1147.8223     5000 1.6556995e+13       500000 
  296000    1148.2511     5000 1.6557482e+13       500000 
  296100    1148.6663     5000 1.6563429e+13       500000 
  296200    1149.0862     5000 1.6550217e+13       500000 
  296300    1149.5261     5000 1.6537582e+13       500000 
  296400    1149.9366     5000 1.6550305e+13       500000 
  296500    1150.3568     5000  1.65695e+13       500000 
  296600    1150.7915     5000 1.6557487e+13       500000 
  296700    1151.2442     5000 1.7784132e+13       500000 
  296800    1151.7014     5000 1.6563955e+13       500000 
  296900    1152.1636     5000 1.6557599e+13       500000 
  297000    1152.6144     5000 1.657459e+13       500000 
  297100    1153.0378     5000 1.6568572e+13       500000 
  297200    1153.4616     5000 1.6567458e+13       500000 
  297300    1153.8841     5000 1.6568422e+13       500000 
  297400    1154.3108     5000 1.657571e+13       500000 
  297500    1154.7452     5000 1.6575674e+13       500000 
  297600    1155.1677     5000 1.6594668e+13       500000 
  297700    1155.5949     5000 1.660035e+13       500000 
  297800    1156.0221     5000 1.6975034e+13       500000 
  297900    1156.4508     5000 1.822294e+13       500000 
  298000    1156.8811     5000 1.7079485e+13       500000 
  298100    1157.3006     5000 1.6742902e+13       500000 
  298200    1157.7313     5000 1.6735693e+13       500000 
  298300    1158.1588     5000 1.6714042e+13       500000 
  298400    1158.5816     5000 1.6701332e+13       500000 
  298500    1159.0128     5000 1.6689232e+13       500000 
  298600    1159.4232     5000 1.6680682e+13       500000 
  298700    1159.8515     5000 1.6679335e+13       500000 
  298800    1160.2977     5000 1.6673443e+13       500000 
  298900    1160.7206     5000 1.6665117e+13       500000 
  299000    1161.1658     5000 1.6654963e+13       500000 
  299100    1161.5942     5000 1.6644657e+13       500000 
  299200     1162.017     5000 1.6640152e+13       500000 
  299300    1162.4629     5000 1.6623325e+13       500000 
  299400    1162.8887     5000 1.660916e+13       500000 
  299500    1163.3234     5000 1.6602607e+13       500000 
  299600    1163.7434     5000 1.659925e+13       500000 
  299700    1164.1749     5000 1.6596945e+13       500000 
  299800    1164.5944     5000 1.6589423e+13       500000 
  299900    1165.0099     5000 1.6589082e+13       500000 
  300000    1165.4596     5000 1.6589898e+13       500000 
Loop time of 1165.46 on 1 procs for 300000 steps with 5000 atoms

99.6% CPU use with 1 MPI tasks x no OpenMP threads

MPI task timing breakdown:
Section |  min time  |  avg time  |  max time  |%varavg| %total
---------------------------------------------------------------
Pair    | 74.046     | 74.046     | 74.046     |   0.0 |  6.35
Neigh   | 0.45036    | 0.45036    | 0.45036    |   0.0 |  0.04
Comm    | 0.21938    | 0.21938    | 0.21938    |   0.0 |  0.02
Output  | 7.0549     | 7.0549     | 7.0549     |   0.0 |  0.61
Modify  | 1076.3     | 1076.3     | 1076.3     |   0.0 | 92.35
Other   |            | 7.383      |            |       |  0.63

Nlocal:    5000 ave 5000 max 5000 min
Histogram: 1 0 0 0 0 0 0 0 0 0
Nghost:    0 ave 0 max 0 min
Histogram: 1 0 0 0 0 0 0 0 0 0
Neighs:    26811 ave 26811 max 26811 min
Histogram: 1 0 0 0 0 0 0 0 0 0

Total # of neighbors = 26811
Ave neighs/atom = 5.3622
Neighbor list builds = 142
Dangerous builds = 0
Total wall time: 0:19:25
