atom_style  sphere
dimension   2
units       si

###############################################
# Size, contact parameters
###############################################

variable    kn equal 1e6
variable    damp equal 0.0
variable    coeffFric equal 0.3
variable    kt equal 0.5*${kn}
variable    kt equal 0.5*1000000
variable    rad equal 5000

variable    omega equal 0.5*10^(-3)
variable    lambda equal 8.0*10^5

variable    airDensity equal 1.225
variable    waterDensity equal 1017.0
variable    windDragCoefficient equal 0.015
variable    oceanDragCoefficient equal 0.0045

###############################################
# Geometry-related parameters
###############################################

variable    lx equal  500000
variable    ly equal  ${lx}*1.5
variable    ly equal  500000*1.5
variable    ly2 equal ${lx}
variable    ly2 equal 500000

###############################################
# Create box
###############################################
boundary    f f p

variable    x0 equal 0
variable    x1 equal ${lx}
variable    x1 equal 500000
variable    y0 equal 0
variable    y1 equal ${ly}
variable    y1 equal 750000
region      boxreg block ${x0} ${x1} ${y0} ${y1} -${rad} ${rad} units box
region      boxreg block 0 ${x1} ${y0} ${y1} -${rad} ${rad} units box
region      boxreg block 0 500000 ${y0} ${y1} -${rad} ${rad} units box
region      boxreg block 0 500000 0 ${y1} -${rad} ${rad} units box
region      boxreg block 0 500000 0 750000 -${rad} ${rad} units box
region      boxreg block 0 500000 0 750000 -5000 ${rad} units box
region      boxreg block 0 500000 0 750000 -5000 5000 units box
create_box  1 boxreg
Created orthogonal box = (0 0 -5000) to (500000 750000 5000)
  1 by 1 by 1 MPI processor grid

###############################################
# Simulation Initialization Includes
###############################################

include     in.include.atoms
###################
# Atom Parameters #
###################

variable minmass equal 176775514.927150
variable diam equal 13416.174886
create_atoms 1 single 174462.231116 711961.961962 0.000000
Created 1 atoms
  Time spent = 3.606e-05 secs
create_atoms 1 single 363931.965983 606856.856857 0.000000
Created 1 atoms
  Time spent = 0.000360414 secs
create_atoms 1 single 473111.555778 658033.033033 0.000000
Created 1 atoms
  Time spent = 1.36e-06 secs
create_atoms 1 single 340920.460230 722472.472472 0.000000
Created 1 atoms
  Time spent = 1.086e-06 secs
create_atoms 1 single 412956.478239 695195.195195 0.000000
Created 1 atoms
  Time spent = 9.83004e-07 secs
create_atoms 1 single 256003.001501 558308.308308 0.000000
Created 1 atoms
  Time spent = 9.68001e-07 secs
create_atoms 1 single 276513.256628 706331.331331 0.000000
Created 1 atoms
  Time spent = 9.72002e-07 secs
create_atoms 1 single 481615.807904 685310.310310 0.000000
Created 1 atoms
  Time spent = 9.69005e-07 secs
create_atoms 1 single 338419.209605 637637.637638 0.000000
Created 1 atoms
  Time spent = 9.74003e-07 secs
create_atoms 1 single 359679.839920 727352.352352 0.000000
Created 1 atoms
  Time spent = 1.007e-06 secs
create_atoms 1 single 368184.092046 509509.509510 0.000000
Created 1 atoms
  Time spent = 9.65003e-07 secs
create_atoms 1 single 421085.542771 608108.108108 0.000000
Created 1 atoms
  Time spent = 9.90003e-07 secs
create_atoms 1 single 360430.215108 707332.332332 0.000000
Created 1 atoms
  Time spent = 9.75e-07 secs
create_atoms 1 single 246623.311656 690440.440440 0.000000
Created 1 atoms
  Time spent = 9.62005e-07 secs
create_atoms 1 single 280390.195098 584459.459459 0.000000
Created 1 atoms
  Time spent = 9.69005e-07 secs
create_atoms 1 single 42771.385693 687812.812813 0.000000
Created 1 atoms
  Time spent = 1.016e-06 secs
create_atoms 1 single 372436.218109 587462.462462 0.000000
Created 1 atoms
  Time spent = 1e-06 secs
create_atoms 1 single 160080.040020 539914.914915 0.000000
Created 1 atoms
  Time spent = 1.003e-06 secs
create_atoms 1 single 218359.179590 610235.235235 0.000000
Created 1 atoms
  Time spent = 6.41301e-06 secs
create_atoms 1 single 438844.422211 677052.052052 0.000000
Created 1 atoms
  Time spent = 2.459e-06 secs
create_atoms 1 single 88544.272136 534159.159159 0.000000
Created 1 atoms
  Time spent = 1.625e-06 secs
create_atoms 1 single 430340.170085 518643.643644 0.000000
Created 1 atoms
  Time spent = 1.578e-06 secs
create_atoms 1 single 98674.337169 703578.578579 0.000000
Created 1 atoms
  Time spent = 1.502e-06 secs
create_atoms 1 single 376688.344172 623623.623624 0.000000
Created 1 atoms
  Time spent = 1.57e-06 secs
create_atoms 1 single 411080.540270 559559.559560 0.000000
Created 1 atoms
  Time spent = 1.65e-06 secs
create_atoms 1 single 375062.531266 650900.900901 0.000000
Created 1 atoms
  Time spent = 1.612e-06 secs
create_atoms 1 single 373561.780890 535410.410410 0.000000
Created 1 atoms
  Time spent = 1.648e-06 secs
create_atoms 1 single 264507.253627 739489.489489 0.000000
Created 1 atoms
  Time spent = 1.633e-06 secs
create_atoms 1 single 46148.074037 668793.793794 0.000000
Created 1 atoms
  Time spent = 1.669e-06 secs
create_atoms 1 single 328414.207104 604979.979980 0.000000
Created 1 atoms
  Time spent = 2.6052e-05 secs
create_atoms 1 single 205477.738869 719844.844845 0.000000
Created 1 atoms
  Time spent = 5.256e-06 secs
create_atoms 1 single 203226.613307 537037.037037 0.000000
Created 1 atoms
  Time spent = 1.836e-06 secs
create_atoms 1 single 277013.506753 639764.764765 0.000000
Created 1 atoms
  Time spent = 1.762e-06 secs
create_atoms 1 single 255252.626313 709334.334334 0.000000
Created 1 atoms
  Time spent = 1.627e-06 secs
create_atoms 1 single 435342.671336 603603.603604 0.000000
Created 1 atoms
  Time spent = 1.587e-06 secs
create_atoms 1 single 330290.145073 624124.124124 0.000000
Created 1 atoms
  Time spent = 1.773e-06 secs
create_atoms 1 single 334917.458729 742992.992993 0.000000
Created 1 atoms
  Time spent = 1.583e-06 secs
create_atoms 1 single 404327.163582 637512.512513 0.000000
Created 1 atoms
  Time spent = 1.572e-06 secs
create_atoms 1 single 100425.212606 623498.498498 0.000000
Created 1 atoms
  Time spent = 1.583e-06 secs
create_atoms 1 single 114557.278639 665165.165165 0.000000
Created 1 atoms
  Time spent = 1.551e-06 secs
create_atoms 1 single 358179.089545 555555.555556 0.000000
Created 1 atoms
  Time spent = 1.53e-06 secs
create_atoms 1 single 103176.588294 521521.521522 0.000000
Created 1 atoms
  Time spent = 1.625e-06 secs
create_atoms 1 single 307653.826913 673423.423423 0.000000
Created 1 atoms
  Time spent = 1.563e-06 secs
create_atoms 1 single 492996.498249 581331.331331 0.000000
Created 1 atoms
  Time spent = 1.58e-06 secs
create_atoms 1 single 110930.465233 612112.112112 0.000000
Created 1 atoms
  Time spent = 1.676e-06 secs
create_atoms 1 single 290020.010005 572822.822823 0.000000
Created 1 atoms
  Time spent = 1.593e-06 secs
create_atoms 1 single 234867.433717 705830.830831 0.000000
Created 1 atoms
  Time spent = 1.68e-06 secs
create_atoms 1 single 467233.616808 688438.438438 0.000000
Created 1 atoms
  Time spent = 6.088e-06 secs
create_atoms 1 single 135317.658829 685185.185185 0.000000
Created 1 atoms
  Time spent = 2.122e-06 secs
create_atoms 1 single 200225.112556 615865.865866 0.000000
Created 1 atoms
  Time spent = 2.08e-06 secs
create_atoms 1 single 13381.690845 705205.205205 0.000000
Created 1 atoms
  Time spent = 1.642e-06 secs
create_atoms 1 single 201850.925463 697322.322322 0.000000
Created 1 atoms
  Time spent = 1.673e-06 secs
create_atoms 1 single 413206.603302 580955.955956 0.000000
Created 1 atoms
  Time spent = 1.674e-06 secs
create_atoms 1 single 392821.410705 625250.250250 0.000000
Created 1 atoms
  Time spent = 1.773e-06 secs
create_atoms 1 single 416833.416708 667417.417417 0.000000
Created 1 atoms
  Time spent = 1.728e-06 secs
create_atoms 1 single 123311.655828 529279.279279 0.000000
Created 1 atoms
  Time spent = 1.79e-06 secs
create_atoms 1 single 24887.443722 700700.700701 0.000000
Created 1 atoms
  Time spent = 1.737e-06 secs
create_atoms 1 single 318784.392196 686311.311311 0.000000
Created 1 atoms
  Time spent = 1.58e-06 secs
create_atoms 1 single 391445.722861 672672.672673 0.000000
Created 1 atoms
  Time spent = 1.699e-06 secs
create_atoms 1 single 431340.670335 582582.582583 0.000000
Created 1 atoms
  Time spent = 2.015e-06 secs
create_atoms 1 single 473736.868434 548298.298298 0.000000
Created 1 atoms
  Time spent = 1.847e-06 secs
create_atoms 1 single 116183.091546 701826.826827 0.000000
Created 1 atoms
  Time spent = 1.322e-06 secs
create_atoms 1 single 73786.893447 580830.830831 0.000000
Created 1 atoms
  Time spent = 1.144e-06 secs
create_atoms 1 single 458979.489745 512512.512513 0.000000
Created 1 atoms
  Time spent = 1.142e-06 secs
create_atoms 1 single 143321.660830 637637.637638 0.000000
Created 1 atoms
  Time spent = 6.37599e-06 secs
create_atoms 1 single 218484.242121 589339.339339 0.000000
Created 1 atoms
  Time spent = 2.025e-06 secs
create_atoms 1 single 419959.979990 546421.421421 0.000000
Created 1 atoms
  Time spent = 1.783e-06 secs
create_atoms 1 single 61030.515258 666416.416416 0.000000
Created 1 atoms
  Time spent = 1.965e-06 secs
create_atoms 1 single 319784.892446 541291.291291 0.000000
Created 1 atoms
  Time spent = 1.729e-06 secs
create_atoms 1 single 225987.993997 641391.391391 0.000000
Created 1 atoms
  Time spent = 1.767e-06 secs
create_atoms 1 single 189844.922461 582457.457457 0.000000
Created 1 atoms
  Time spent = 1.83099e-06 secs
create_atoms 1 single 32391.195598 714464.464464 0.000000
Created 1 atoms
  Time spent = 1.75e-06 secs
create_atoms 1 single 63656.828414 681806.806807 0.000000
Created 1 atoms
  Time spent = 1.761e-06 secs
create_atoms 1 single 232741.370685 630630.630631 0.000000
Created 1 atoms
  Time spent = 1.673e-06 secs
create_atoms 1 single 386068.034017 556806.806807 0.000000
Created 1 atoms
  Time spent = 1.767e-06 secs
create_atoms 1 single 236368.184092 561186.186186 0.000000
Created 1 atoms
  Time spent = 4.53401e-06 secs
create_atoms 1 single 138069.034517 720220.220220 0.000000
Created 1 atoms
  Time spent = 1.99e-06 secs
create_atoms 1 single 74287.143572 633508.508509 0.000000
Created 1 atoms
  Time spent = 1.764e-06 secs
create_atoms 1 single 108804.402201 741616.616617 0.000000
Created 1 atoms
  Time spent = 1.737e-06 secs
create_atoms 1 single 187343.671836 566316.316316 0.000000
Created 1 atoms
  Time spent = 1.671e-06 secs
create_atoms 1 single 443221.610805 656281.281281 0.000000
Created 1 atoms
  Time spent = 1.802e-06 secs
create_atoms 1 single 375312.656328 677677.677678 0.000000
Created 1 atoms
  Time spent = 1.851e-06 secs
create_atoms 1 single 5627.813907 544419.419419 0.000000
Created 1 atoms
  Time spent = 1.753e-06 secs
create_atoms 1 single 485867.933967 526401.401401 0.000000
Created 1 atoms
  Time spent = 1.714e-06 secs
create_atoms 1 single 489744.872436 607232.232232 0.000000
Created 1 atoms
  Time spent = 1.837e-06 secs
create_atoms 1 single 164707.353677 738488.488488 0.000000
Created 1 atoms
  Time spent = 1.729e-06 secs
create_atoms 1 single 68409.204602 720220.220220 0.000000
Created 1 atoms
  Time spent = 1.797e-06 secs
create_atoms 1 single 137318.659330 612987.987988 0.000000
Created 1 atoms
  Time spent = 1.709e-06 secs
create_atoms 1 single 487868.934467 539289.289289 0.000000
Created 1 atoms
  Time spent = 1.808e-06 secs
create_atoms 1 single 488244.122061 568193.193193 0.000000
Created 1 atoms
  Time spent = 1.757e-06 secs
create_atoms 1 single 309904.952476 653153.153153 0.000000
Created 1 atoms
  Time spent = 1.872e-06 secs
create_atoms 1 single 382691.345673 603603.603604 0.000000
Created 1 atoms
  Time spent = 1.264e-06 secs
create_atoms 1 single 383441.720860 579954.954955 0.000000
Created 1 atoms
  Time spent = 1.192e-06 secs
create_atoms 1 single 478864.432216 573448.448448 0.000000
Created 1 atoms
  Time spent = 5.456e-06 secs
create_atoms 1 single 371935.967984 555555.555556 0.000000
Created 1 atoms
  Time spent = 2.119e-06 secs
create_atoms 1 single 43146.573287 542542.542543 0.000000
Created 1 atoms
  Time spent = 1.95399e-06 secs
create_atoms 1 single 122561.280640 505505.505506 0.000000
Created 1 atoms
  Time spent = 2.132e-06 secs
create_atoms 1 single 65782.891446 527277.277277 0.000000
Created 1 atoms
  Time spent = 1.884e-06 secs
create_atoms 1 single 414957.478739 528028.028028 0.000000
Created 1 atoms
  Time spent = 2.14e-06 secs
create_atoms 1 single 313031.515758 729479.479479 0.000000
Created 1 atoms
  Time spent = 1.946e-06 secs
create_atoms 1 single 269759.879940 549799.799800 0.000000
Created 1 atoms
  Time spent = 1.786e-06 secs
create_atoms 1 single 114807.403702 651526.526527 0.000000
Created 1 atoms
  Time spent = 1.763e-06 secs
create_atoms 1 single 8379.189595 728228.228228 0.000000
Created 1 atoms
  Time spent = 2.612e-06 secs
create_atoms 1 single 12131.065533 564064.064064 0.000000
Created 1 atoms
  Time spent = 1.943e-06 secs
create_atoms 1 single 317408.704352 621371.371371 0.000000
Created 1 atoms
  Time spent = 1.76499e-06 secs
create_atoms 1 single 154077.038519 733858.858859 0.000000
Created 1 atoms
  Time spent = 1.789e-06 secs
create_atoms 1 single 450100.050025 636261.261261 0.000000
Created 1 atoms
  Time spent = 1.79499e-06 secs
create_atoms 1 single 415332.666333 624499.499499 0.000000
Created 1 atoms
  Time spent = 1.725e-06 secs
create_atoms 1 single 107678.839420 679054.054054 0.000000
Created 1 atoms
  Time spent = 1.859e-06 secs
create_atoms 1 single 223611.805903 686811.811812 0.000000
Created 1 atoms
  Time spent = 2.003e-06 secs
create_atoms 1 single 316033.016508 566691.691692 0.000000
Created 1 atoms
  Time spent = 1.77899e-06 secs
create_atoms 1 single 103426.713357 640765.765766 0.000000
Created 1 atoms
  Time spent = 1.93799e-06 secs
create_atoms 1 single 485242.621311 619494.494494 0.000000
Created 1 atoms
  Time spent = 2.027e-06 secs
create_atoms 1 single 370935.467734 734109.109109 0.000000
Created 1 atoms
  Time spent = 1.763e-06 secs
create_atoms 1 single 241370.685343 718718.718719 0.000000
Created 1 atoms
  Time spent = 1.799e-06 secs
create_atoms 1 single 62656.328164 614364.364364 0.000000
Created 1 atoms
  Time spent = 1.93e-06 secs
create_atoms 1 single 6628.314157 632882.882883 0.000000
Created 1 atoms
  Time spent = 1.79e-06 secs
create_atoms 1 single 276638.319160 689564.564565 0.000000
Created 1 atoms
  Time spent = 1.874e-06 secs
create_atoms 1 single 336293.146573 529779.779780 0.000000
Created 1 atoms
  Time spent = 1.942e-06 secs
create_atoms 1 single 306528.264132 599974.974975 0.000000
Created 1 atoms
  Time spent = 1.24e-06 secs
create_atoms 1 single 319784.892446 713588.588589 0.000000
Created 1 atoms
  Time spent = 1.318e-06 secs
create_atoms 1 single 442971.485743 524024.024024 0.000000
Created 1 atoms
  Time spent = 1.193e-06 secs
create_atoms 1 single 295147.573787 553303.303303 0.000000
Created 1 atoms
  Time spent = 3.258e-06 secs
create_atoms 1 single 299524.762381 737737.737738 0.000000
Created 1 atoms
  Time spent = 2.14e-06 secs
create_atoms 1 single 160830.415208 562687.687688 0.000000
Created 1 atoms
  Time spent = 1.904e-06 secs
create_atoms 1 single 376313.156578 568443.443443 0.000000
Created 1 atoms
  Time spent = 1.964e-06 secs
create_atoms 1 single 165332.666333 687812.812813 0.000000
Created 1 atoms
  Time spent = 1.934e-06 secs
create_atoms 1 single 8629.314657 691691.691692 0.000000
Created 1 atoms
  Time spent = 1.90399e-06 secs
create_atoms 1 single 292771.385693 720845.845846 0.000000
Created 1 atoms
  Time spent = 2.22e-06 secs
create_atoms 1 single 40145.072536 655280.280280 0.000000
Created 1 atoms
  Time spent = 2.00301e-06 secs
create_atoms 1 single 306903.451726 694694.694695 0.000000
Created 1 atoms
  Time spent = 2.025e-06 secs
create_atoms 1 single 73661.830915 696696.696697 0.000000
Created 1 atoms
  Time spent = 1.895e-06 secs
create_atoms 1 single 406453.226613 594594.594595 0.000000
Created 1 atoms
  Time spent = 2.018e-06 secs
create_atoms 1 single 388944.472236 514014.014014 0.000000
Created 1 atoms
  Time spent = 1.906e-06 secs
create_atoms 1 single 58904.452226 507257.257257 0.000000
Created 1 atoms
  Time spent = 1.941e-06 secs
create_atoms 1 single 163581.790895 552302.302302 0.000000
Created 1 atoms
  Time spent = 2.431e-06 secs
create_atoms 1 single 296523.261631 604979.979980 0.000000
Created 1 atoms
  Time spent = 2.078e-06 secs
create_atoms 1 single 391820.910455 657407.407407 0.000000
Created 1 atoms
  Time spent = 2.337e-06 secs
create_atoms 1 single 297148.574287 589464.464464 0.000000
Created 1 atoms
  Time spent = 2.205e-06 secs
create_atoms 1 single 274887.443722 662912.912913 0.000000
Created 1 atoms
  Time spent = 1.969e-06 secs
create_atoms 1 single 243496.748374 657157.157157 0.000000
Created 1 atoms
  Time spent = 2.062e-06 secs
create_atoms 1 single 279889.944972 539289.289289 0.000000
Created 1 atoms
  Time spent = 2.01201e-06 secs
create_atoms 1 single 133816.908454 631381.381381 0.000000
Created 1 atoms
  Time spent = 2.099e-06 secs
create_atoms 1 single 406453.226613 669794.794795 0.000000
Created 1 atoms
  Time spent = 2.038e-06 secs
create_atoms 1 single 341045.522761 510010.010010 0.000000
Created 1 atoms
  Time spent = 2.066e-06 secs
create_atoms 1 single 228739.369685 666416.416416 0.000000
Created 1 atoms
  Time spent = 2.042e-06 secs
create_atoms 1 single 55777.888944 649024.024024 0.000000
Created 1 atoms
  Time spent = 2.033e-06 secs
create_atoms 1 single 449349.674837 684184.184184 0.000000
Created 1 atoms
  Time spent = 2.059e-06 secs
create_atoms 1 single 26013.006503 606231.231231 0.000000
Created 1 atoms
  Time spent = 2.044e-06 secs
create_atoms 1 single 180715.357679 621871.871872 0.000000
Created 1 atoms
  Time spent = 1.43e-06 secs
create_atoms 1 single 431715.857929 644519.519520 0.000000
Created 1 atoms
  Time spent = 1.297e-06 secs
create_atoms 1 single 98299.149575 737612.612613 0.000000
Created 1 atoms
  Time spent = 3.089e-06 secs
create_atoms 1 single 475362.681341 520895.895896 0.000000
Created 1 atoms
  Time spent = 2.116e-06 secs
create_atoms 1 single 359429.714857 685310.310310 0.000000
Created 1 atoms
  Time spent = 2.145e-06 secs
create_atoms 1 single 199099.549775 629129.129129 0.000000
Created 1 atoms
  Time spent = 2.183e-06 secs
create_atoms 1 single 92796.398199 550800.800801 0.000000
Created 1 atoms
  Time spent = 2.028e-06 secs
create_atoms 1 single 266383.191596 724349.349349 0.000000
Created 1 atoms
  Time spent = 2.119e-06 secs
create_atoms 1 single 100675.337669 509009.009009 0.000000
Created 1 atoms
  Time spent = 1.959e-06 secs
create_atoms 1 single 76538.269135 668043.043043 0.000000
Created 1 atoms
  Time spent = 2.08e-06 secs
create_atoms 1 single 183966.983492 642142.142142 0.000000
Created 1 atoms
  Time spent = 2.033e-06 secs
create_atoms 1 single 213106.553277 558683.683684 0.000000
Created 1 atoms
  Time spent = 2.144e-06 secs
create_atoms 1 single 220860.430215 552802.802803 0.000000
Created 1 atoms
  Time spent = 2.153e-06 secs
create_atoms 1 single 380315.157579 723098.098098 0.000000
Created 1 atoms
  Time spent = 1.924e-06 secs
create_atoms 1 single 300025.012506 533033.033033 0.000000
Created 1 atoms
  Time spent = 2.545e-06 secs
create_atoms 1 single 337543.771886 564689.689690 0.000000
Created 1 atoms
  Time spent = 2.068e-06 secs
create_atoms 1 single 199224.612306 653028.028028 0.000000
Created 1 atoms
  Time spent = 2.026e-06 secs
create_atoms 1 single 4752.376188 714714.714715 0.000000
Created 1 atoms
  Time spent = 2.113e-06 secs
create_atoms 1 single 324537.268634 666916.916917 0.000000
Created 1 atoms
  Time spent = 2.13e-06 secs
create_atoms 1 single 220735.367684 574949.949950 0.000000
Created 1 atoms
  Time spent = 2.037e-06 secs
create_atoms 1 single 345422.711356 606981.981982 0.000000
Created 1 atoms
  Time spent = 2.138e-06 secs
create_atoms 1 single 346548.274137 579454.454454 0.000000
Created 1 atoms
  Time spent = 1.038e-05 secs
create_atoms 1 single 425712.856428 676426.426426 0.000000
Created 1 atoms
  Time spent = 2.252e-06 secs
create_atoms 1 single 117558.779390 632507.507508 0.000000
Created 1 atoms
  Time spent = 2.135e-06 secs
create_atoms 1 single 425087.543772 634259.259259 0.000000
Created 1 atoms
  Time spent = 2.097e-06 secs
create_atoms 1 single 272511.255628 672922.922923 0.000000
Created 1 atoms
  Time spent = 2.127e-06 secs
create_atoms 1 single 432591.295648 702077.077077 0.000000
Created 1 atoms
  Time spent = 2.209e-06 secs
create_atoms 1 single 148449.224612 742617.617618 0.000000
Created 1 atoms
  Time spent = 3.404e-06 secs
create_atoms 1 single 319409.704852 528153.153153 0.000000
Created 1 atoms
  Time spent = 2.355e-06 secs
create_atoms 1 single 150200.100050 694319.319319 0.000000
Created 1 atoms
  Time spent = 2.091e-06 secs
create_atoms 1 single 347423.711856 664539.539540 0.000000
Created 1 atoms
  Time spent = 2.095e-06 secs
create_atoms 1 single 272886.443222 520520.520521 0.000000
Created 1 atoms
  Time spent = 2.14e-06 secs
create_atoms 1 single 41645.822911 644144.144144 0.000000
Created 1 atoms
  Time spent = 2.252e-06 secs
create_atoms 1 single 265257.628814 639514.514515 0.000000
Created 1 atoms
  Time spent = 2.103e-06 secs
create_atoms 1 single 486868.434217 704079.079079 0.000000
Created 1 atoms
  Time spent = 2.234e-06 secs
create_atoms 1 single 39894.947474 631006.006006 0.000000
Created 1 atoms
  Time spent = 2.212e-06 secs
create_atoms 1 single 396198.099050 595595.595596 0.000000
Created 1 atoms
  Time spent = 2.01e-06 secs
create_atoms 1 single 349549.774887 691316.316316 0.000000
Created 1 atoms
  Time spent = 2.18e-06 secs
create_atoms 1 single 410705.352676 728978.978979 0.000000
Created 1 atoms
  Time spent = 2.142e-06 secs
create_atoms 1 single 77413.706853 651026.026026 0.000000
Created 1 atoms
  Time spent = 3.123e-06 secs
create_atoms 1 single 73161.580790 708833.833834 0.000000
Created 1 atoms
  Time spent = 2.231e-06 secs
create_atoms 1 single 18134.067034 537412.412412 0.000000
Created 1 atoms
  Time spent = 2.075e-06 secs
create_atoms 1 single 51650.825413 516516.516517 0.000000
Created 1 atoms
  Time spent = 2.054e-06 secs
create_atoms 1 single 483991.995998 598098.098098 0.000000
Created 1 atoms
  Time spent = 2.572e-06 secs
create_atoms 1 single 122811.405703 715715.715716 0.000000
Created 1 atoms
  Time spent = 2.071e-06 secs
create_atoms 1 single 446223.111556 600725.725726 0.000000
Created 1 atoms
  Time spent = 2.225e-06 secs
create_atoms 1 single 458354.177089 695195.195195 0.000000
Created 1 atoms
  Time spent = 2.03701e-06 secs
create_atoms 1 single 191845.922961 679679.679680 0.000000
Created 1 atoms
  Time spent = 2.255e-06 secs
create_atoms 1 single 173461.730865 506131.131131 0.000000
Created 1 atoms
  Time spent = 2.137e-06 secs
create_atoms 1 single 148324.162081 721471.471471 0.000000
Created 1 atoms
  Time spent = 2.156e-06 secs
create_atoms 1 single 493621.810905 628378.378378 0.000000
Created 1 atoms
  Time spent = 2.10899e-06 secs
create_atoms 1 single 56778.389195 597597.597598 0.000000
Created 1 atoms
  Time spent = 2.271e-06 secs
create_atoms 1 single 31140.570285 659159.159159 0.000000
Created 1 atoms
  Time spent = 2.094e-06 secs
create_atoms 1 single 247498.749375 517017.017017 0.000000
Created 1 atoms
  Time spent = 1.559e-06 secs
create_atoms 1 single 211855.927964 690065.065065 0.000000
Created 1 atoms
  Time spent = 1.397e-06 secs
create_atoms 1 single 55277.638819 580705.705706 0.000000
Created 1 atoms
  Time spent = 1.423e-06 secs
create_atoms 1 single 361055.527764 582582.582583 0.000000
Created 1 atoms
  Time spent = 1.387e-06 secs
create_atoms 1 single 330415.207604 688063.063063 0.000000
Created 1 atoms
  Time spent = 1.566e-06 secs
create_atoms 1 single 399824.912456 681556.556557 0.000000
Created 1 atoms
  Time spent = 1.42e-06 secs
create_atoms 1 single 238619.309655 579204.204204 0.000000
Created 1 atoms
  Time spent = 1.586e-06 secs
create_atoms 1 single 8754.377189 578453.453453 0.000000
Created 1 atoms
  Time spent = 3.391e-06 secs
create_atoms 1 single 377688.844422 693443.443443 0.000000
Created 1 atoms
  Time spent = 2.308e-06 secs
create_atoms 1 single 150700.350175 664164.164164 0.000000
Created 1 atoms
  Time spent = 2.11e-06 secs
create_atoms 1 single 170460.230115 674799.799800 0.000000
Created 1 atoms
  Time spent = 2.212e-06 secs
create_atoms 1 single 476113.056528 744994.994995 0.000000
Created 1 atoms
  Time spent = 2.187e-06 secs
create_atoms 1 single 135817.908954 646896.896897 0.000000
Created 1 atoms
  Time spent = 2.299e-06 secs
create_atoms 1 single 488119.059530 736361.361361 0.000000
Created 1 atoms
  Time spent = 2.78901e-06 secs
create_atoms 1 single 232741.370685 727477.477477 0.000000
Created 1 atoms
  Time spent = 2.369e-06 secs
create_atoms 1 single 183591.795898 733358.358358 0.000000
Created 1 atoms
  Time spent = 2.212e-06 secs
create_atoms 1 single 433216.608304 624749.749750 0.000000
Created 1 atoms
  Time spent = 2.341e-06 secs
create_atoms 1 single 124187.093547 584709.709710 0.000000
Created 1 atoms
  Time spent = 2.17299e-06 secs
create_atoms 1 single 404952.476238 517267.267267 0.000000
Created 1 atoms
  Time spent = 2.771e-06 secs
create_atoms 1 single 360305.152576 659034.034034 0.000000
Created 1 atoms
  Time spent = 2.23301e-06 secs
create_atoms 1 single 387943.971986 691941.941942 0.000000
Created 1 atoms
  Time spent = 2.259e-06 secs
create_atoms 1 single 20135.067534 581706.706707 0.000000
Created 1 atoms
  Time spent = 2.232e-06 secs
create_atoms 1 single 140945.472736 548548.548549 0.000000
Created 1 atoms
  Time spent = 2.327e-06 secs
create_atoms 1 single 446723.361681 573698.698699 0.000000
Created 1 atoms
  Time spent = 2.307e-06 secs
create_atoms 1 single 256378.189095 626876.876877 0.000000
Created 1 atoms
  Time spent = 2.445e-06 secs
create_atoms 1 single 12381.190595 618493.493493 0.000000
Created 1 atoms
  Time spent = 2.357e-06 secs
create_atoms 1 single 396448.224112 532907.907908 0.000000
Created 1 atoms
  Time spent = 2.297e-06 secs
create_atoms 1 single 404827.413707 538913.913914 0.000000
Created 1 atoms
  Time spent = 2.457e-06 secs
create_atoms 1 single 255252.626313 599599.599600 0.000000
Created 1 atoms
  Time spent = 2.384e-06 secs
create_atoms 1 single 184217.108554 632132.132132 0.000000
Created 1 atoms
  Time spent = 2.466e-06 secs
create_atoms 1 single 49274.637319 625875.875876 0.000000
Created 1 atoms
  Time spent = 2.50099e-06 secs
create_atoms 1 single 229864.932466 540665.665666 0.000000
Created 1 atoms
  Time spent = 2.322e-06 secs
create_atoms 1 single 352176.088044 646896.896897 0.000000
Created 1 atoms
  Time spent = 2.388e-06 secs
create_atoms 1 single 398949.474737 711336.336336 0.000000
Created 1 atoms
  Time spent = 1.67e-06 secs
create_atoms 1 single 351675.837919 509759.759760 0.000000
Created 1 atoms
  Time spent = 1.467e-06 secs
create_atoms 1 single 93796.898449 592592.592593 0.000000
Created 1 atoms
  Time spent = 3.54301e-06 secs
create_atoms 1 single 372186.093047 716966.966967 0.000000
Created 1 atoms
  Time spent = 2.28e-06 secs
create_atoms 1 single 233616.808404 532657.657658 0.000000
Created 1 atoms
  Time spent = 2.262e-06 secs
create_atoms 1 single 121685.842921 562437.437437 0.000000
Created 1 atoms
  Time spent = 2.62e-06 secs
create_atoms 1 single 327038.519260 569569.569570 0.000000
Created 1 atoms
  Time spent = 2.33499e-06 secs
create_atoms 1 single 246498.249125 591716.716717 0.000000
Created 1 atoms
  Time spent = 2.305e-06 secs
create_atoms 1 single 362306.153077 523148.148148 0.000000
Created 1 atoms
  Time spent = 2.248e-06 secs
create_atoms 1 single 262631.315658 540915.915916 0.000000
Created 1 atoms
  Time spent = 2.399e-06 secs
create_atoms 1 single 432716.358179 536661.661662 0.000000
Created 1 atoms
  Time spent = 2.234e-06 secs
create_atoms 1 single 89544.772386 733983.983984 0.000000
Created 1 atoms
  Time spent = 2.256e-06 secs
create_atoms 1 single 215107.553777 715340.340340 0.000000
Created 1 atoms
  Time spent = 2.303e-06 secs
create_atoms 1 single 124187.093547 681556.556557 0.000000
Created 1 atoms
  Time spent = 2.493e-06 secs
create_atoms 1 single 245122.561281 625875.875876 0.000000
Created 1 atoms
  Time spent = 2.805e-06 secs
create_atoms 1 single 105552.776388 551176.176176 0.000000
Created 1 atoms
  Time spent = 1.64199e-06 secs
create_atoms 1 single 452726.363182 730980.980981 0.000000
Created 1 atoms
  Time spent = 2.404e-06 secs
create_atoms 1 single 29014.507254 504629.629630 0.000000
Created 1 atoms
  Time spent = 2.342e-06 secs
create_atoms 1 single 291645.822911 674924.924925 0.000000
Created 1 atoms
  Time spent = 2.415e-06 secs
create_atoms 1 single 152701.350675 598223.223223 0.000000
Created 1 atoms
  Time spent = 2.606e-06 secs
create_atoms 1 single 171210.605303 600225.225225 0.000000
Created 1 atoms
  Time spent = 2.532e-06 secs
create_atoms 1 single 127813.906953 549299.299299 0.000000
Created 1 atoms
  Time spent = 2.636e-06 secs
create_atoms 1 single 213481.740870 632757.757758 0.000000
Created 1 atoms
  Time spent = 2.676e-06 secs
create_atoms 1 single 107178.589295 575825.825826 0.000000
Created 1 atoms
  Time spent = 2.418e-06 secs
create_atoms 1 single 479739.869935 610860.860861 0.000000
Created 1 atoms
  Time spent = 2.37999e-06 secs
create_atoms 1 single 119684.842421 600475.475475 0.000000
Created 1 atoms
  Time spent = 2.293e-06 secs
create_atoms 1 single 31515.757879 595970.970971 0.000000
Created 1 atoms
  Time spent = 2.507e-06 secs
create_atoms 1 single 161830.915458 699324.324324 0.000000
Created 1 atoms
  Time spent = 2.375e-06 secs
create_atoms 1 single 270760.380190 598723.723724 0.000000
Created 1 atoms
  Time spent = 1.738e-06 secs
create_atoms 1 single 407953.976988 719094.094094 0.000000
Created 1 atoms
  Time spent = 8.133e-06 secs
create_atoms 1 single 71910.955478 547422.422422 0.000000
Created 1 atoms
  Time spent = 2.723e-06 secs
create_atoms 1 single 176463.231616 657407.407407 0.000000
Created 1 atoms
  Time spent = 2.097e-06 secs
create_atoms 1 single 46898.449225 728228.228228 0.000000
Created 1 atoms
  Time spent = 2.008e-06 secs
create_atoms 1 single 443846.923462 510135.135135 0.000000
Created 1 atoms
  Time spent = 2.134e-06 secs
create_atoms 1 single 349174.587294 704329.329329 0.000000
Created 1 atoms
  Time spent = 2.181e-06 secs
create_atoms 1 single 133066.533267 698323.323323 0.000000
Created 1 atoms
  Time spent = 2.568e-06 secs
create_atoms 1 single 240120.060030 540415.415415 0.000000
Created 1 atoms
  Time spent = 2.366e-06 secs
create_atoms 1 single 278514.257129 606231.231231 0.000000
Created 1 atoms
  Time spent = 2.195e-06 secs
create_atoms 1 single 56153.076538 528778.778779 0.000000
Created 1 atoms
  Time spent = 2.02e-06 secs
create_atoms 1 single 223736.868434 509009.009009 0.000000
Created 1 atoms
  Time spent = 1.89801e-06 secs
create_atoms 1 single 344297.148574 570320.320320 0.000000
Created 1 atoms
  Time spent = 2.205e-06 secs
create_atoms 1 single 22136.068034 573448.448448 0.000000
Created 1 atoms
  Time spent = 2.195e-06 secs
create_atoms 1 single 313656.828414 637137.137137 0.000000
Created 1 atoms
  Time spent = 1.986e-06 secs
create_atoms 1 single 291145.572786 708833.833834 0.000000
Created 1 atoms
  Time spent = 2.345e-06 secs
create_atoms 1 single 56278.139070 730605.605606 0.000000
Created 1 atoms
  Time spent = 2.201e-06 secs
create_atoms 1 single 262381.190595 605355.355355 0.000000
Created 1 atoms
  Time spent = 2.133e-06 secs
create_atoms 1 single 286893.446723 745495.495495 0.000000
Created 1 atoms
  Time spent = 2.174e-06 secs
create_atoms 1 single 357053.526763 533408.408408 0.000000
Created 1 atoms
  Time spent = 2.093e-06 secs
create_atoms 1 single 187093.546773 657532.532533 0.000000
Created 1 atoms
  Time spent = 2.13e-06 secs
create_atoms 1 single 71910.955478 614489.489489 0.000000
Created 1 atoms
  Time spent = 2.094e-06 secs
create_atoms 1 single 16883.441721 744369.369369 0.000000
Created 1 atoms
  Time spent = 2.091e-06 secs
create_atoms 1 single 348424.212106 629504.504505 0.000000
Created 1 atoms
  Time spent = 2.085e-06 secs
create_atoms 1 single 148824.412206 711461.461461 0.000000
Created 1 atoms
  Time spent = 2.182e-06 secs
create_atoms 1 single 320160.080040 518893.893894 0.000000
Created 1 atoms
  Time spent = 2.695e-06 secs
create_atoms 1 single 397448.724362 555680.680681 0.000000
Created 1 atoms
  Time spent = 2.828e-06 secs
create_atoms 1 single 237243.621811 664039.039039 0.000000
Created 1 atoms
  Time spent = 2.905e-06 secs
create_atoms 1 single 330790.395198 707832.832833 0.000000
Created 1 atoms
  Time spent = 2.873e-06 secs
create_atoms 1 single 42521.260630 612737.737738 0.000000
Created 1 atoms
  Time spent = 2.625e-06 secs
create_atoms 1 single 91170.585293 743743.743744 0.000000
Created 1 atoms
  Time spent = 3.213e-06 secs
create_atoms 1 single 175337.668834 527027.027027 0.000000
Created 1 atoms
  Time spent = 2.405e-06 secs
create_atoms 1 single 13006.503252 554554.554555 0.000000
Created 1 atoms
  Time spent = 1.66699e-06 secs
create_atoms 1 single 77288.644322 682682.682683 0.000000
Created 1 atoms
  Time spent = 1.677e-06 secs
create_atoms 1 single 193721.860930 662662.662663 0.000000
Created 1 atoms
  Time spent = 2.246e-06 secs
create_atoms 1 single 314532.266133 554929.929930 0.000000
Created 1 atoms
  Time spent = 2.335e-06 secs
create_atoms 1 single 173586.793397 536161.161161 0.000000
Created 1 atoms
  Time spent = 2.015e-06 secs
create_atoms 1 single 372686.343172 667917.917918 0.000000
Created 1 atoms
  Time spent = 2.147e-06 secs
create_atoms 1 single 9754.877439 527152.152152 0.000000
Created 1 atoms
  Time spent = 2.024e-06 secs
create_atoms 1 single 459979.989995 569569.569570 0.000000
Created 1 atoms
  Time spent = 2.376e-06 secs
create_atoms 1 single 28639.319660 626626.626627 0.000000
Created 1 atoms
  Time spent = 1.704e-06 secs
create_atoms 1 single 75287.643822 597222.222222 0.000000
Created 1 atoms
  Time spent = 1.752e-06 secs
create_atoms 1 single 435217.608804 728978.978979 0.000000
Created 1 atoms
  Time spent = 1.628e-06 secs
create_atoms 1 single 253126.563282 679179.179179 0.000000
Created 1 atoms
  Time spent = 1.64301e-06 secs
create_atoms 1 single 345797.898949 522772.772773 0.000000
Created 1 atoms
  Time spent = 1.656e-06 secs
create_atoms 1 single 476113.056528 590590.590591 0.000000
Created 1 atoms
  Time spent = 1.67e-06 secs
create_atoms 1 single 152076.038019 677427.427427 0.000000
Created 1 atoms
  Time spent = 1.665e-06 secs
create_atoms 1 single 297648.824412 702577.577578 0.000000
Created 1 atoms
  Time spent = 1.656e-06 secs
create_atoms 1 single 29514.757379 685810.810811 0.000000
Created 1 atoms
  Time spent = 1.645e-06 secs
create_atoms 1 single 88169.084542 659409.409409 0.000000
Created 1 atoms
  Time spent = 1.653e-06 secs
create_atoms 1 single 71660.830415 657282.282282 0.000000
Created 1 atoms
  Time spent = 1.65799e-06 secs
create_atoms 1 single 472861.430715 638138.138138 0.000000
Created 1 atoms
  Time spent = 1.676e-06 secs
create_atoms 1 single 474987.493747 673423.423423 0.000000
Created 1 atoms
  Time spent = 1.69e-06 secs
create_atoms 1 single 236618.309155 739864.864865 0.000000
Created 1 atoms
  Time spent = 1.654e-06 secs
create_atoms 1 single 156203.101551 615115.115115 0.000000
Created 1 atoms
  Time spent = 1.665e-06 secs
create_atoms 1 single 135192.596298 667292.292292 0.000000
Created 1 atoms
  Time spent = 1.675e-06 secs
create_atoms 1 single 47023.511756 718093.093093 0.000000
Created 1 atoms
  Time spent = 1.668e-06 secs
create_atoms 1 single 430465.232616 565565.565566 0.000000
Created 1 atoms
  Time spent = 1.836e-06 secs
create_atoms 1 single 489369.684842 507632.632633 0.000000
Created 1 atoms
  Time spent = 1.663e-06 secs
create_atoms 1 single 311405.702851 532782.782783 0.000000
Created 1 atoms
  Time spent = 1.681e-06 secs
create_atoms 1 single 178214.107054 571696.696697 0.000000
Created 1 atoms
  Time spent = 1.68e-06 secs
create_atoms 1 single 435967.983992 742867.867868 0.000000
Created 1 atoms
  Time spent = 1.725e-06 secs
create_atoms 1 single 313656.828414 591341.341341 0.000000
Created 1 atoms
  Time spent = 1.708e-06 secs
create_atoms 1 single 59654.827414 705455.455455 0.000000
Created 1 atoms
  Time spent = 1.681e-06 secs
create_atoms 1 single 129939.969985 731731.731732 0.000000
Created 1 atoms
  Time spent = 1.709e-06 secs
create_atoms 1 single 251750.875438 729354.354354 0.000000
Created 1 atoms
  Time spent = 1.697e-06 secs
create_atoms 1 single 328914.457229 515640.640641 0.000000
Created 1 atoms
  Time spent = 1.672e-06 secs
create_atoms 1 single 388569.284642 645770.770771 0.000000
Created 1 atoms
  Time spent = 1.702e-06 secs
create_atoms 1 single 233616.808404 695820.820821 0.000000
Created 1 atoms
  Time spent = 1.698e-06 secs
create_atoms 1 single 181340.670335 668168.168168 0.000000
Created 1 atoms
  Time spent = 2.057e-06 secs
create_atoms 1 single 472236.118059 731606.606607 0.000000
Created 1 atoms
  Time spent = 1.7e-06 secs
create_atoms 1 single 300025.012506 727102.102102 0.000000
Created 1 atoms
  Time spent = 1.73e-06 secs
create_atoms 1 single 5127.563782 557557.557558 0.000000
Created 1 atoms
  Time spent = 1.723e-06 secs
create_atoms 1 single 145822.911456 512262.262262 0.000000
Created 1 atoms
  Time spent = 1.832e-06 secs
create_atoms 1 single 199599.799900 734734.734735 0.000000
Created 1 atoms
  Time spent = 1.75901e-06 secs
create_atoms 1 single 400450.225113 659909.909910 0.000000
Created 1 atoms
  Time spent = 1.72501e-06 secs
create_atoms 1 single 274137.068534 628003.003003 0.000000
Created 1 atoms
  Time spent = 1.661e-06 secs
create_atoms 1 single 39644.822411 565565.565566 0.000000
Created 1 atoms
  Time spent = 1.725e-06 secs
create_atoms 1 single 73161.580790 513513.513514 0.000000
Created 1 atoms
  Time spent = 7.825e-06 secs
create_atoms 1 single 311280.640320 506006.006006 0.000000
Created 1 atoms
  Time spent = 1.786e-06 secs
create_atoms 1 single 154327.163582 583083.083083 0.000000
Created 1 atoms
  Time spent = 1.70599e-06 secs
create_atoms 1 single 464732.366183 599599.599600 0.000000
Created 1 atoms
  Time spent = 1.758e-06 secs
create_atoms 1 single 302151.075538 613363.363363 0.000000
Created 1 atoms
  Time spent = 1.724e-06 secs
create_atoms 1 single 476363.181591 701701.701702 0.000000
Created 1 atoms
  Time spent = 1.80501e-06 secs
create_atoms 1 single 36518.259130 516891.891892 0.000000
Created 1 atoms
  Time spent = 1.768e-06 secs
create_atoms 1 single 112181.090545 543293.293293 0.000000
Created 1 atoms
  Time spent = 1.739e-06 secs
create_atoms 1 single 221110.555278 651276.276276 0.000000
Created 1 atoms
  Time spent = 1.765e-06 secs
create_atoms 1 single 473111.555778 581331.331331 0.000000
Created 1 atoms
  Time spent = 1.74899e-06 secs
create_atoms 1 single 455227.613807 612862.862863 0.000000
Created 1 atoms
  Time spent = 1.79e-06 secs
create_atoms 1 single 444597.298649 742117.117117 0.000000
Created 1 atoms
  Time spent = 1.838e-06 secs
create_atoms 1 single 161330.665333 726226.226226 0.000000
Created 1 atoms
  Time spent = 1.75599e-06 secs
create_atoms 1 single 495497.748874 686311.311311 0.000000
Created 1 atoms
  Time spent = 1.74e-06 secs
create_atoms 1 single 183716.858429 608233.233233 0.000000
Created 1 atoms
  Time spent = 1.787e-06 secs
create_atoms 1 single 444347.173587 550050.050050 0.000000
Created 1 atoms
  Time spent = 1.77501e-06 secs
create_atoms 1 single 286018.009005 528528.528529 0.000000
Created 1 atoms
  Time spent = 1.794e-06 secs
create_atoms 1 single 290645.322661 597722.722723 0.000000
Created 1 atoms
  Time spent = 1.775e-06 secs
create_atoms 1 single 361180.590295 540040.040040 0.000000
Created 1 atoms
  Time spent = 1.778e-06 secs
create_atoms 1 single 259129.564782 515140.140140 0.000000
Created 1 atoms
  Time spent = 1.757e-06 secs
create_atoms 1 single 200225.112556 680305.305305 0.000000
Created 1 atoms
  Time spent = 1.805e-06 secs
create_atoms 1 single 5252.626313 599599.599600 0.000000
Created 1 atoms
  Time spent = 1.793e-06 secs
create_atoms 1 single 77788.894447 624499.499499 0.000000
Created 1 atoms
  Time spent = 1.74899e-06 secs
create_atoms 1 single 154577.288644 653403.403403 0.000000
Created 1 atoms
  Time spent = 1.793e-06 secs
create_atoms 1 single 161455.727864 676926.926927 0.000000
Created 1 atoms
  Time spent = 1.778e-06 secs
create_atoms 1 single 83791.895948 615990.990991 0.000000
Created 1 atoms
  Time spent = 1.795e-06 secs
create_atoms 1 single 281515.757879 730230.230230 0.000000
Created 1 atoms
  Time spent = 1.795e-06 secs
create_atoms 1 single 198099.049525 575575.575576 0.000000
Created 1 atoms
  Time spent = 1.909e-06 secs
create_atoms 1 single 260255.127564 653403.403403 0.000000
Created 1 atoms
  Time spent = 1.834e-06 secs
create_atoms 1 single 220610.305153 662412.412412 0.000000
Created 1 atoms
  Time spent = 1.818e-06 secs
create_atoms 1 single 493746.873437 637887.887888 0.000000
Created 1 atoms
  Time spent = 2.126e-06 secs
create_atoms 1 single 251750.875438 659659.659660 0.000000
Created 1 atoms
  Time spent = 1.791e-06 secs
create_atoms 1 single 70285.142571 673798.798799 0.000000
Created 1 atoms
  Time spent = 1.796e-06 secs
create_atoms 1 single 54277.138569 542167.167167 0.000000
Created 1 atoms
  Time spent = 1.837e-06 secs
create_atoms 1 single 112931.465733 594094.094094 0.000000
Created 1 atoms
  Time spent = 1.795e-06 secs
create_atoms 1 single 162206.103052 610235.235235 0.000000
Created 1 atoms
  Time spent = 1.978e-06 secs
create_atoms 1 single 486993.496748 715590.590591 0.000000
Created 1 atoms
  Time spent = 1.823e-06 secs
create_atoms 1 single 32516.258129 619369.369369 0.000000
Created 1 atoms
  Time spent = 1.802e-06 secs
create_atoms 1 single 456728.364182 559184.184184 0.000000
Created 1 atoms
  Time spent = 1.83001e-06 secs
create_atoms 1 single 139194.597299 730605.605606 0.000000
Created 1 atoms
  Time spent = 1.901e-06 secs
create_atoms 1 single 288394.197099 691691.691692 0.000000
Created 1 atoms
  Time spent = 1.832e-06 secs
create_atoms 1 single 19759.879940 669419.419419 0.000000
Created 1 atoms
  Time spent = 1.812e-06 secs
create_atoms 1 single 333541.770885 699574.574575 0.000000
Created 1 atoms
  Time spent = 1.854e-06 secs
create_atoms 1 single 494497.248624 529404.404404 0.000000
Created 1 atoms
  Time spent = 1.864e-06 secs
create_atoms 1 single 358054.027014 575075.075075 0.000000
Created 1 atoms
  Time spent = 1.868e-06 secs
create_atoms 1 single 120810.405203 545920.920921 0.000000
Created 1 atoms
  Time spent = 1.89e-06 secs
create_atoms 1 single 350425.212606 589089.089089 0.000000
Created 1 atoms
  Time spent = 1.841e-06 secs
create_atoms 1 single 472736.368184 605855.855856 0.000000
Created 1 atoms
  Time spent = 1.842e-06 secs
create_atoms 1 single 305152.576288 721346.346346 0.000000
Created 1 atoms
  Time spent = 1.913e-06 secs
create_atoms 1 single 275137.568784 568318.318318 0.000000
Created 1 atoms
  Time spent = 1.806e-06 secs
create_atoms 1 single 463606.803402 704329.329329 0.000000
Created 1 atoms
  Time spent = 1.839e-06 secs
create_atoms 1 single 398449.224612 728353.353353 0.000000
Created 1 atoms
  Time spent = 1.884e-06 secs
create_atoms 1 single 322536.268134 555180.180180 0.000000
Created 1 atoms
  Time spent = 1.883e-06 secs
create_atoms 1 single 67533.766883 573198.198198 0.000000
Created 1 atoms
  Time spent = 1.848e-06 secs
create_atoms 1 single 412081.040520 645145.145145 0.000000
Created 1 atoms
  Time spent = 1.843e-06 secs
create_atoms 1 single 169459.729865 662787.787788 0.000000
Created 1 atoms
  Time spent = 1.858e-06 secs
create_atoms 1 single 437843.921961 616491.491491 0.000000
Created 1 atoms
  Time spent = 1.89e-06 secs
create_atoms 1 single 454352.176088 722472.472472 0.000000
Created 1 atoms
  Time spent = 1.934e-06 secs
create_atoms 1 single 400200.100050 698823.823824 0.000000
Created 1 atoms
  Time spent = 1.853e-06 secs
create_atoms 1 single 98174.087044 688313.313313 0.000000
Created 1 atoms
  Time spent = 1.98599e-06 secs
create_atoms 1 single 301150.575288 621246.246246 0.000000
Created 1 atoms
  Time spent = 1.899e-06 secs
create_atoms 1 single 123436.718359 695820.820821 0.000000
Created 1 atoms
  Time spent = 1.888e-06 secs
create_atoms 1 single 210355.177589 653153.153153 0.000000
Created 1 atoms
  Time spent = 1.879e-06 secs
create_atoms 1 single 284017.008504 631631.631632 0.000000
Created 1 atoms
  Time spent = 1.877e-06 secs
create_atoms 1 single 27013.506753 643768.768769 0.000000
Created 1 atoms
  Time spent = 1.885e-06 secs
create_atoms 1 single 59029.514757 693818.818819 0.000000
Created 1 atoms
  Time spent = 1.899e-06 secs
create_atoms 1 single 207353.676838 679179.179179 0.000000
Created 1 atoms
  Time spent = 1.875e-06 secs
create_atoms 1 single 130065.032516 579329.329329 0.000000
Created 1 atoms
  Time spent = 1.874e-06 secs
create_atoms 1 single 321660.830415 726601.601602 0.000000
Created 1 atoms
  Time spent = 1.857e-06 secs
create_atoms 1 single 470360.180090 614239.239239 0.000000
Created 1 atoms
  Time spent = 2.226e-06 secs
create_atoms 1 single 458854.427214 537662.662663 0.000000
Created 1 atoms
  Time spent = 1.933e-06 secs
create_atoms 1 single 18009.004502 638263.263263 0.000000
Created 1 atoms
  Time spent = 1.893e-06 secs
create_atoms 1 single 416708.354177 570070.070070 0.000000
Created 1 atoms
  Time spent = 1.898e-06 secs
create_atoms 1 single 195972.986493 527902.902903 0.000000
Created 1 atoms
  Time spent = 1.918e-06 secs
create_atoms 1 single 275887.943972 723723.723724 0.000000
Created 1 atoms
  Time spent = 2.007e-06 secs
create_atoms 1 single 493371.685843 616991.991992 0.000000
Created 1 atoms
  Time spent = 2.048e-06 secs
create_atoms 1 single 455852.926463 583708.708709 0.000000
Created 1 atoms
  Time spent = 1.907e-06 secs
create_atoms 1 single 286018.009005 551676.676677 0.000000
Created 1 atoms
  Time spent = 1.952e-06 secs
create_atoms 1 single 245872.936468 504379.379379 0.000000
Created 1 atoms
  Time spent = 1.894e-06 secs
create_atoms 1 single 31765.882941 540165.165165 0.000000
Created 1 atoms
  Time spent = 1.939e-06 secs
create_atoms 1 single 210230.115058 705205.205205 0.000000
Created 1 atoms
  Time spent = 1.932e-06 secs
create_atoms 1 single 99549.774887 713963.963964 0.000000
Created 1 atoms
  Time spent = 2.841e-06 secs
create_atoms 1 single 308279.139570 584334.334334 0.000000
Created 1 atoms
  Time spent = 2.949e-06 secs
create_atoms 1 single 131815.907954 571946.946947 0.000000
Created 1 atoms
  Time spent = 2.029e-06 secs
create_atoms 1 single 323036.518259 734234.234234 0.000000
Created 1 atoms
  Time spent = 1.907e-06 secs
create_atoms 1 single 239369.684842 548048.048048 0.000000
Created 1 atoms
  Time spent = 1.935e-06 secs
create_atoms 1 single 171585.792896 631631.631632 0.000000
Created 1 atoms
  Time spent = 1.97801e-06 secs
create_atoms 1 single 440470.235118 556181.181181 0.000000
Created 1 atoms
  Time spent = 1.975e-06 secs
create_atoms 1 single 292771.385693 614489.489489 0.000000
Created 1 atoms
  Time spent = 3.02e-06 secs
create_atoms 1 single 452476.238119 707832.832833 0.000000
Created 1 atoms
  Time spent = 2.901e-06 secs
create_atoms 1 single 230615.307654 513388.388388 0.000000
Created 1 atoms
  Time spent = 2.06e-06 secs
create_atoms 1 single 394572.286143 743993.993994 0.000000
Created 1 atoms
  Time spent = 2.111e-06 secs
create_atoms 1 single 9379.689845 742242.242242 0.000000
Created 1 atoms
  Time spent = 1.937e-06 secs
create_atoms 1 single 234742.371186 591091.091091 0.000000
Created 1 atoms
  Time spent = 1.936e-06 secs
create_atoms 1 single 349424.712356 672297.297297 0.000000
Created 1 atoms
  Time spent = 1.96401e-06 secs
create_atoms 1 single 56778.389195 629004.004004 0.000000
Created 1 atoms
  Time spent = 4.171e-06 secs
create_atoms 1 single 401450.725363 506381.381381 0.000000
Created 1 atoms
  Time spent = 2.152e-06 secs
create_atoms 1 single 67158.579290 742742.742743 0.000000
Created 1 atoms
  Time spent = 2.946e-06 secs
create_atoms 1 single 357553.776888 671296.296296 0.000000
Created 1 atoms
  Time spent = 3.076e-06 secs
create_atoms 1 single 79789.894947 541166.166166 0.000000
Created 1 atoms
  Time spent = 9.479e-06 secs
create_atoms 1 single 232491.245623 506006.006006 0.000000
Created 1 atoms
  Time spent = 2.373e-06 secs
create_atoms 1 single 82916.458229 597472.472472 0.000000
Created 1 atoms
  Time spent = 1.982e-06 secs
create_atoms 1 single 255752.876438 696196.196196 0.000000
Created 1 atoms
  Time spent = 1.97e-06 secs
create_atoms 1 single 418209.104552 722472.472472 0.000000
Created 1 atoms
  Time spent = 2.032e-06 secs
create_atoms 1 single 332541.270635 664789.789790 0.000000
Created 1 atoms
  Time spent = 2.165e-06 secs
create_atoms 1 single 114932.466233 578578.578579 0.000000
Created 1 atoms
  Time spent = 3.044e-06 secs
create_atoms 1 single 50400.200100 742242.242242 0.000000
Created 1 atoms
  Time spent = 2.16599e-06 secs
create_atoms 1 single 195847.923962 547922.922923 0.000000
Created 1 atoms
  Time spent = 3.187e-06 secs
create_atoms 1 single 495247.623812 671046.046046 0.000000
Created 1 atoms
  Time spent = 2.684e-06 secs
create_atoms 1 single 69534.767384 730605.605606 0.000000
Created 1 atoms
  Time spent = 2.06599e-06 secs
create_atoms 1 single 147573.786893 563688.688689 0.000000
Created 1 atoms
  Time spent = 2.013e-06 secs
create_atoms 1 single 273761.880940 531031.031031 0.000000
Created 1 atoms
  Time spent = 1.976e-06 secs
create_atoms 1 single 92921.460730 672547.547548 0.000000
Created 1 atoms
  Time spent = 2.042e-06 secs
create_atoms 1 single 304902.451226 552927.927928 0.000000
Created 1 atoms
  Time spent = 2.028e-06 secs
create_atoms 1 single 462231.115558 719094.094094 0.000000
Created 1 atoms
  Time spent = 1.992e-06 secs
create_atoms 1 single 39519.759880 508758.758759 0.000000
Created 1 atoms
  Time spent = 2.024e-06 secs
create_atoms 1 single 338919.459730 706706.706707 0.000000
Created 1 atoms
  Time spent = 1.983e-06 secs
create_atoms 1 single 57903.951976 712712.712713 0.000000
Created 1 atoms
  Time spent = 1.996e-06 secs
create_atoms 1 single 29514.757379 650650.650651 0.000000
Created 1 atoms
  Time spent = 1.985e-06 secs
create_atoms 1 single 364807.403702 624874.874875 0.000000
Created 1 atoms
  Time spent = 2.00301e-06 secs
create_atoms 1 single 263506.753377 532032.032032 0.000000
Created 1 atoms
  Time spent = 1.984e-06 secs
create_atoms 1 single 176963.481741 543543.543544 0.000000
Created 1 atoms
  Time spent = 1.989e-06 secs
create_atoms 1 single 415332.666333 592592.592593 0.000000
Created 1 atoms
  Time spent = 2.034e-06 secs
create_atoms 1 single 441470.735368 627877.877878 0.000000
Created 1 atoms
  Time spent = 2.17999e-06 secs
create_atoms 1 single 84042.021011 675175.175175 0.000000
Created 1 atoms
  Time spent = 2.021e-06 secs
create_atoms 1 single 480240.120060 644769.769770 0.000000
Created 1 atoms
  Time spent = 2.02e-06 secs
create_atoms 1 single 70910.455228 560185.185185 0.000000
Created 1 atoms
  Time spent = 1.991e-06 secs
create_atoms 1 single 464982.491246 637887.887888 0.000000
Created 1 atoms
  Time spent = 2.041e-06 secs
create_atoms 1 single 424337.168584 709459.459459 0.000000
Created 1 atoms
  Time spent = 2.005e-06 secs
create_atoms 1 single 80415.207604 524149.149149 0.000000
Created 1 atoms
  Time spent = 2.017e-06 secs
create_atoms 1 single 387443.721861 713213.213213 0.000000
Created 1 atoms
  Time spent = 2.025e-06 secs
create_atoms 1 single 29264.632316 674424.424424 0.000000
Created 1 atoms
  Time spent = 2.054e-06 secs
create_atoms 1 single 296023.011506 541416.416416 0.000000
Created 1 atoms
  Time spent = 2.038e-06 secs
create_atoms 1 single 492746.373187 656781.781782 0.000000
Created 1 atoms
  Time spent = 2.073e-06 secs
create_atoms 1 single 100050.025013 598098.098098 0.000000
Created 1 atoms
  Time spent = 2.046e-06 secs
create_atoms 1 single 319159.579790 656906.906907 0.000000
Created 1 atoms
  Time spent = 2.021e-06 secs
create_atoms 1 single 393071.535768 544044.044044 0.000000
Created 1 atoms
  Time spent = 2.06e-06 secs
create_atoms 1 single 336168.084042 519019.019019 0.000000
Created 1 atoms
  Time spent = 2.022e-06 secs
create_atoms 1 single 428339.169585 659534.534535 0.000000
Created 1 atoms
  Time spent = 2.058e-06 secs
create_atoms 1 single 277638.819410 506756.756757 0.000000
Created 1 atoms
  Time spent = 2.17e-06 secs
create_atoms 1 single 357928.964482 566941.941942 0.000000
Created 1 atoms
  Time spent = 2.05e-06 secs
create_atoms 1 single 75412.706353 745870.870871 0.000000
Created 1 atoms
  Time spent = 2.039e-06 secs
create_atoms 1 single 385192.596298 533408.408408 0.000000
Created 1 atoms
  Time spent = 2.054e-06 secs
create_atoms 1 single 182466.233117 678428.428428 0.000000
Created 1 atoms
  Time spent = 2.063e-06 secs
create_atoms 1 single 218609.304652 531531.531532 0.000000
Created 1 atoms
  Time spent = 2.218e-06 secs
create_atoms 1 single 365057.528764 742992.992993 0.000000
Created 1 atoms
  Time spent = 2.074e-06 secs
create_atoms 1 single 84042.021011 645895.895896 0.000000
Created 1 atoms
  Time spent = 2.07601e-06 secs
create_atoms 1 single 454352.176088 549924.924925 0.000000
Created 1 atoms
  Time spent = 2.442e-06 secs
create_atoms 1 single 327163.581791 527277.277277 0.000000
Created 1 atoms
  Time spent = 2.11701e-06 secs
create_atoms 1 single 297648.824412 648898.898899 0.000000
Created 1 atoms
  Time spent = 2.001e-06 secs
create_atoms 1 single 441470.735368 638013.013013 0.000000
Created 1 atoms
  Time spent = 2.057e-06 secs
create_atoms 1 single 353676.838419 638263.263263 0.000000
Created 1 atoms
  Time spent = 2.082e-06 secs
create_atoms 1 single 115182.591296 674799.799800 0.000000
Created 1 atoms
  Time spent = 2.076e-06 secs
create_atoms 1 single 403951.975988 547297.297297 0.000000
Created 1 atoms
  Time spent = 2.1e-06 secs
create_atoms 1 single 180215.107554 744494.494494 0.000000
Created 1 atoms
  Time spent = 2.135e-06 secs
create_atoms 1 single 47773.886943 634759.759760 0.000000
Created 1 atoms
  Time spent = 2.22601e-06 secs
create_atoms 1 single 109554.777389 695445.445445 0.000000
Created 1 atoms
  Time spent = 2.082e-06 secs
create_atoms 1 single 336043.021511 674424.424424 0.000000
Created 1 atoms
  Time spent = 2.108e-06 secs
create_atoms 1 single 384442.221111 637637.637638 0.000000
Created 1 atoms
  Time spent = 2.128e-06 secs
create_atoms 1 single 157953.976988 640640.640641 0.000000
Created 1 atoms
  Time spent = 2.106e-06 secs
create_atoms 1 single 321035.517759 637262.262262 0.000000
Created 1 atoms
  Time spent = 2.113e-06 secs
create_atoms 1 single 335792.896448 546921.921922 0.000000
Created 1 atoms
  Time spent = 2.088e-06 secs
create_atoms 1 single 329539.769885 729979.979980 0.000000
Created 1 atoms
  Time spent = 2.144e-06 secs
create_atoms 1 single 466858.429215 589464.464464 0.000000
Created 1 atoms
  Time spent = 2.136e-06 secs
create_atoms 1 single 458104.052026 646271.271271 0.000000
Created 1 atoms
  Time spent = 2.155e-06 secs
create_atoms 1 single 182966.483242 651026.026026 0.000000
Created 1 atoms
  Time spent = 2.148e-06 secs
create_atoms 1 single 197723.861931 520395.395395 0.000000
Created 1 atoms
  Time spent = 2.088e-06 secs
create_atoms 1 single 363931.965983 547797.797798 0.000000
Created 1 atoms
  Time spent = 2.129e-06 secs
create_atoms 1 single 139444.722361 694069.069069 0.000000
Created 1 atoms
  Time spent = 2.114e-06 secs
create_atoms 1 single 280890.445223 674549.549550 0.000000
Created 1 atoms
  Time spent = 2.161e-06 secs
create_atoms 1 single 16383.191596 646896.896897 0.000000
Created 1 atoms
  Time spent = 2.176e-06 secs
create_atoms 1 single 233616.808404 606731.731732 0.000000
Created 1 atoms
  Time spent = 1.0675e-05 secs
create_atoms 1 single 456103.051526 667542.542543 0.000000
Created 1 atoms
  Time spent = 2.18301e-06 secs
create_atoms 1 single 144822.411206 531406.406406 0.000000
Created 1 atoms
  Time spent = 2.16e-06 secs
create_atoms 1 single 23386.693347 527777.777778 0.000000
Created 1 atoms
  Time spent = 2.229e-06 secs
create_atoms 1 single 255627.813907 613488.488488 0.000000
Created 1 atoms
  Time spent = 2.182e-06 secs
create_atoms 1 single 484867.433717 745620.620621 0.000000
Created 1 atoms
  Time spent = 2.201e-06 secs
create_atoms 1 single 405077.538769 572072.072072 0.000000
Created 1 atoms
  Time spent = 2.175e-06 secs
create_atoms 1 single 188219.109555 743368.368368 0.000000
Created 1 atoms
  Time spent = 2.163e-06 secs
create_atoms 1 single 435467.733867 709709.709710 0.000000
Created 1 atoms
  Time spent = 2.169e-06 secs
create_atoms 1 single 495122.561281 592842.842843 0.000000
Created 1 atoms
  Time spent = 2.127e-06 secs
create_atoms 1 single 28264.132066 522022.022022 0.000000
Created 1 atoms
  Time spent = 2.169e-06 secs
create_atoms 1 single 364057.028514 645520.520521 0.000000
Created 1 atoms
  Time spent = 2.165e-06 secs
create_atoms 1 single 305277.638819 526776.776777 0.000000
Created 1 atoms
  Time spent = 2.148e-06 secs
create_atoms 1 single 202601.300650 589464.464464 0.000000
Created 1 atoms
  Time spent = 2.145e-06 secs
create_atoms 1 single 4377.188594 653903.903904 0.000000
Created 1 atoms
  Time spent = 2.198e-06 secs
create_atoms 1 single 38144.072036 550175.175175 0.000000
Created 1 atoms
  Time spent = 2.504e-06 secs
create_atoms 1 single 83916.958479 556306.306306 0.000000
Created 1 atoms
  Time spent = 2.23101e-06 secs
create_atoms 1 single 77413.706853 566441.441441 0.000000
Created 1 atoms
  Time spent = 2.224e-06 secs
create_atoms 1 single 454977.488744 602852.852853 0.000000
Created 1 atoms
  Time spent = 2.202e-06 secs
create_atoms 1 single 207978.989495 549799.799800 0.000000
Created 1 atoms
  Time spent = 2.207e-06 secs
create_atoms 1 single 128314.157079 637012.012012 0.000000
Created 1 atoms
  Time spent = 2.217e-06 secs
create_atoms 1 single 121810.905453 642892.892893 0.000000
Created 1 atoms
  Time spent = 2.215e-06 secs
create_atoms 1 single 20510.255128 559184.184184 0.000000
Created 1 atoms
  Time spent = 2.209e-06 secs
create_atoms 1 single 220110.055028 628128.128128 0.000000
Created 1 atoms
  Time spent = 2.253e-06 secs
create_atoms 1 single 284642.321161 601976.976977 0.000000
Created 1 atoms
  Time spent = 2.183e-06 secs
create_atoms 1 single 283141.570785 613738.738739 0.000000
Created 1 atoms
  Time spent = 2.161e-06 secs
create_atoms 1 single 330790.395198 585335.335335 0.000000
Created 1 atoms
  Time spent = 2.204e-06 secs
create_atoms 1 single 379564.782391 739239.239239 0.000000
Created 1 atoms
  Time spent = 2.232e-06 secs
create_atoms 1 single 161455.727864 669169.169169 0.000000
Created 1 atoms
  Time spent = 2.202e-06 secs
create_atoms 1 single 284767.383692 663788.788789 0.000000
Created 1 atoms
  Time spent = 2.22299e-06 secs
create_atoms 1 single 389694.847424 590465.465465 0.000000
Created 1 atoms
  Time spent = 2.17401e-06 secs
create_atoms 1 single 478739.369685 562437.437437 0.000000
Created 1 atoms
  Time spent = 2.223e-06 secs
create_atoms 1 single 81165.582791 703453.453453 0.000000
Created 1 atoms
  Time spent = 2.23101e-06 secs
create_atoms 1 single 191345.672836 553303.303303 0.000000
Created 1 atoms
  Time spent = 2.208e-06 secs
create_atoms 1 single 186593.296648 614364.364364 0.000000
Created 1 atoms
  Time spent = 2.212e-06 secs
create_atoms 1 single 48149.074537 571196.196196 0.000000
Created 1 atoms
  Time spent = 2.227e-06 secs
create_atoms 1 single 208479.239620 507257.257257 0.000000
Created 1 atoms
  Time spent = 2.244e-06 secs
create_atoms 1 single 336168.084042 591341.341341 0.000000
Created 1 atoms
  Time spent = 2.7e-06 secs
create_atoms 1 single 63031.515758 657532.532533 0.000000
Created 1 atoms
  Time spent = 3.48e-06 secs
create_atoms 1 single 410330.165083 657907.907908 0.000000
Created 1 atoms
  Time spent = 2.354e-06 secs
create_atoms 1 single 426463.231616 555805.805806 0.000000
Created 1 atoms
  Time spent = 2.229e-06 secs
create_atoms 1 single 3376.688344 669669.669670 0.000000
Created 1 atoms
  Time spent = 2.228e-06 secs
create_atoms 1 single 409079.539770 510260.260260 0.000000
Created 1 atoms
  Time spent = 2.256e-06 secs
create_atoms 1 single 210105.052526 519269.269269 0.000000
Created 1 atoms
  Time spent = 2.275e-06 secs
create_atoms 1 single 304902.451226 574824.824825 0.000000
Created 1 atoms
  Time spent = 2.287e-06 secs
create_atoms 1 single 403451.725863 741741.741742 0.000000
Created 1 atoms
  Time spent = 2.28199e-06 secs
create_atoms 1 single 246748.374187 546421.421421 0.000000
Created 1 atoms
  Time spent = 2.26e-06 secs
create_atoms 1 single 470485.242621 594969.969970 0.000000
Created 1 atoms
  Time spent = 2.262e-06 secs
create_atoms 1 single 133441.720860 538663.663664 0.000000
Created 1 atoms
  Time spent = 2.418e-06 secs
create_atoms 1 single 170335.167584 564939.939940 0.000000
Created 1 atoms
  Time spent = 2.311e-06 secs
create_atoms 1 single 206603.301651 599474.474474 0.000000
Created 1 atoms
  Time spent = 2.295e-06 secs
create_atoms 1 single 353551.775888 539789.789790 0.000000
Created 1 atoms
  Time spent = 2.28e-06 secs
create_atoms 1 single 345672.836418 551801.801802 0.000000
Created 1 atoms
  Time spent = 2.272e-06 secs
create_atoms 1 single 209354.677339 731981.981982 0.000000
Created 1 atoms
  Time spent = 2.29e-06 secs
create_atoms 1 single 241870.935468 526401.401401 0.000000
Created 1 atoms
  Time spent = 2.596e-06 secs
create_atoms 1 single 91420.710355 569944.944945 0.000000
Created 1 atoms
  Time spent = 2.354e-06 secs
create_atoms 1 single 257628.814407 507757.757758 0.000000
Created 1 atoms
  Time spent = 2.29701e-06 secs
create_atoms 1 single 382066.033017 523773.773774 0.000000
Created 1 atoms
  Time spent = 2.288e-06 secs
create_atoms 1 single 64032.016008 553553.553554 0.000000
Created 1 atoms
  Time spent = 2.318e-06 secs
create_atoms 1 single 417708.854427 536161.161161 0.000000
Created 1 atoms
  Time spent = 2.294e-06 secs
create_atoms 1 single 326288.144072 651526.526527 0.000000
Created 1 atoms
  Time spent = 2.29701e-06 secs
create_atoms 1 single 75787.893947 504004.004004 0.000000
Created 1 atoms
  Time spent = 2.294e-06 secs
create_atoms 1 single 14757.378689 600600.600601 0.000000
Created 1 atoms
  Time spent = 2.30601e-06 secs
create_atoms 1 single 274887.443722 612862.862863 0.000000
Created 1 atoms
  Time spent = 2.286e-06 secs
create_atoms 1 single 154577.288644 510010.010010 0.000000
Created 1 atoms
  Time spent = 2.771e-06 secs
create_atoms 1 single 47273.636818 533783.783784 0.000000
Created 1 atoms
  Time spent = 2.33899e-06 secs
create_atoms 1 single 119309.654827 689064.064064 0.000000
Created 1 atoms
  Time spent = 2.318e-06 secs
create_atoms 1 single 117183.591796 727352.352352 0.000000
Created 1 atoms
  Time spent = 2.316e-06 secs
create_atoms 1 single 240370.185093 519894.894895 0.000000
Created 1 atoms
  Time spent = 2.28101e-06 secs
create_atoms 1 single 137568.784392 528278.278278 0.000000
Created 1 atoms
  Time spent = 2.303e-06 secs
create_atoms 1 single 211230.615308 569069.069069 0.000000
Created 1 atoms
  Time spent = 2.303e-06 secs
create_atoms 1 single 8129.064532 535410.410410 0.000000
Created 1 atoms
  Time spent = 2.429e-06 secs
create_atoms 1 single 242121.060530 674799.799800 0.000000
Created 1 atoms
  Time spent = 2.33101e-06 secs
create_atoms 1 single 68409.204602 644894.894895 0.000000
Created 1 atoms
  Time spent = 2.379e-06 secs
create_atoms 1 single 264757.378689 687937.937938 0.000000
Created 1 atoms
  Time spent = 2.397e-06 secs
create_atoms 1 single 130065.032516 560560.560561 0.000000
Created 1 atoms
  Time spent = 2.316e-06 secs
create_atoms 1 single 150825.412706 645395.395395 0.000000
Created 1 atoms
  Time spent = 2.413e-06 secs
create_atoms 1 single 414582.291146 740240.240240 0.000000
Created 1 atoms
  Time spent = 2.399e-06 secs
create_atoms 1 single 411830.915458 549799.799800 0.000000
Created 1 atoms
  Time spent = 2.435e-06 secs
create_atoms 1 single 299649.824912 640515.515516 0.000000
Created 1 atoms
  Time spent = 2.518e-06 secs
create_atoms 1 single 321035.517759 744369.369369 0.000000
Created 1 atoms
  Time spent = 2.668e-06 secs
create_atoms 1 single 91795.897949 647647.647648 0.000000
Created 1 atoms
  Time spent = 2.318e-06 secs
create_atoms 1 single 430215.107554 735235.235235 0.000000
Created 1 atoms
  Time spent = 2.319e-06 secs
create_atoms 1 single 195847.923962 715840.840841 0.000000
Created 1 atoms
  Time spent = 2.53e-06 secs
create_atoms 1 single 290145.072536 653778.778779 0.000000
Created 1 atoms
  Time spent = 2.544e-06 secs
create_atoms 1 single 347923.961981 619244.244244 0.000000
Created 1 atoms
  Time spent = 2.328e-06 secs
create_atoms 1 single 79914.957479 589464.464464 0.000000
Created 1 atoms
  Time spent = 2.451e-06 secs
create_atoms 1 single 60030.015008 537537.537538 0.000000
Created 1 atoms
  Time spent = 2.425e-06 secs
create_atoms 1 single 246498.249125 736986.986987 0.000000
Created 1 atoms
  Time spent = 2.335e-06 secs
create_atoms 1 single 248749.374687 570695.695696 0.000000
Created 1 atoms
  Time spent = 2.487e-06 secs
create_atoms 1 single 464982.491246 550800.800801 0.000000
Created 1 atoms
  Time spent = 2.409e-06 secs
create_atoms 1 single 301025.512756 509009.009009 0.000000
Created 1 atoms
  Time spent = 2.373e-06 secs
create_atoms 1 single 43646.823412 602727.727728 0.000000
Created 1 atoms
  Time spent = 2.331e-06 secs
create_atoms 1 single 159204.602301 624624.624625 0.000000
Created 1 atoms
  Time spent = 2.81299e-06 secs
create_atoms 1 single 147073.536768 621746.746747 0.000000
Created 1 atoms
  Time spent = 2.569e-06 secs
create_atoms 1 single 36768.384192 728603.603604 0.000000
Created 1 atoms
  Time spent = 2.526e-06 secs
create_atoms 1 single 166958.479240 654029.029029 0.000000
Created 1 atoms
  Time spent = 2.706e-06 secs
create_atoms 1 single 418334.167084 735235.235235 0.000000
Created 1 atoms
  Time spent = 2.467e-06 secs
create_atoms 1 single 50400.200100 556306.306306 0.000000
Created 1 atoms
  Time spent = 2.694e-06 secs
create_atoms 1 single 299649.824912 561186.186186 0.000000
Created 1 atoms
  Time spent = 2.522e-06 secs
create_atoms 1 single 237118.559280 619369.369369 0.000000
Created 1 atoms
  Time spent = 2.511e-06 secs
create_atoms 1 single 479489.744872 630005.005005 0.000000
Created 1 atoms
  Time spent = 2.567e-06 secs
create_atoms 1 single 311405.702851 615740.740741 0.000000
Created 1 atoms
  Time spent = 2.695e-06 secs
create_atoms 1 single 372186.093047 637387.387387 0.000000
Created 1 atoms
  Time spent = 2.708e-06 secs
create_atoms 1 single 7628.814407 623998.998999 0.000000
Created 1 atoms
  Time spent = 2.655e-06 secs
create_atoms 1 single 209479.739870 588338.338338 0.000000
Created 1 atoms
  Time spent = 2.508e-06 secs
create_atoms 1 single 180840.420210 515390.390390 0.000000
Created 1 atoms
  Time spent = 2.654e-06 secs
create_atoms 1 single 123561.780890 612862.862863 0.000000
Created 1 atoms
  Time spent = 2.517e-06 secs
create_atoms 1 single 292896.448224 625250.250250 0.000000
Created 1 atoms
  Time spent = 2.673e-06 secs
create_atoms 1 single 15632.816408 519394.394394 0.000000
Created 1 atoms
  Time spent = 2.594e-06 secs
create_atoms 1 single 322036.018009 508258.258258 0.000000
Created 1 atoms
  Time spent = 2.54e-06 secs
create_atoms 1 single 199474.737369 553053.053053 0.000000
Created 1 atoms
  Time spent = 2.52599e-06 secs
create_atoms 1 single 408579.289645 707082.082082 0.000000
Created 1 atoms
  Time spent = 2.851e-06 secs
create_atoms 1 single 204227.113557 571821.821822 0.000000
Created 1 atoms
  Time spent = 2.636e-06 secs
create_atoms 1 single 12381.190595 715590.590591 0.000000
Created 1 atoms
  Time spent = 2.427e-06 secs
create_atoms 1 single 36518.259130 526401.401401 0.000000
Created 1 atoms
  Time spent = 2.404e-06 secs
create_atoms 1 single 401575.787894 606231.231231 0.000000
Created 1 atoms
  Time spent = 2.558e-06 secs
create_atoms 1 single 354927.463732 743993.993994 0.000000
Created 1 atoms
  Time spent = 2.623e-06 secs
create_atoms 1 single 318534.267134 582832.832833 0.000000
Created 1 atoms
  Time spent = 2.663e-06 secs
create_atoms 1 single 230990.495248 654904.904905 0.000000
Created 1 atoms
  Time spent = 2.501e-06 secs
create_atoms 1 single 13506.753377 654904.904905 0.000000
Created 1 atoms
  Time spent = 2.549e-06 secs
create_atoms 1 single 464982.491246 677552.552553 0.000000
Created 1 atoms
  Time spent = 2.54501e-06 secs
create_atoms 1 single 101675.837919 653028.028028 0.000000
Created 1 atoms
  Time spent = 2.572e-06 secs
create_atoms 1 single 489994.997499 663038.038038 0.000000
Created 1 atoms
  Time spent = 2.449e-06 secs
create_atoms 1 single 82791.395698 516266.266266 0.000000
Created 1 atoms
  Time spent = 2.69801e-06 secs
create_atoms 1 single 462606.303152 621996.996997 0.000000
Created 1 atoms
  Time spent = 2.49e-06 secs
create_atoms 1 single 142571.285643 656031.031031 0.000000
Created 1 atoms
  Time spent = 2.638e-06 secs
create_atoms 1 single 31765.882941 734859.859860 0.000000
Created 1 atoms
  Time spent = 2.491e-06 secs
create_atoms 1 single 52401.200600 613363.363363 0.000000
Created 1 atoms
  Time spent = 2.744e-06 secs
create_atoms 1 single 367808.904452 696821.821822 0.000000
Created 1 atoms
  Time spent = 2.703e-06 secs
create_atoms 1 single 463481.740870 607857.857858 0.000000
Created 1 atoms
  Time spent = 2.584e-06 secs
create_atoms 1 single 80290.145073 550050.050050 0.000000
Created 1 atoms
  Time spent = 2.577e-06 secs
create_atoms 1 single 42896.448224 701951.951952 0.000000
Created 1 atoms
  Time spent = 3.251e-06 secs
create_atoms 1 single 216608.304152 740865.865866 0.000000
Created 1 atoms
  Time spent = 2.836e-06 secs
create_atoms 1 single 388194.097049 739614.614615 0.000000
Created 1 atoms
  Time spent = 2.784e-06 secs
create_atoms 1 single 66033.016508 512762.762763 0.000000
Created 1 atoms
  Time spent = 2.444e-06 secs
create_atoms 1 single 266508.254127 575325.325325 0.000000
Created 1 atoms
  Time spent = 2.946e-06 secs
create_atoms 1 single 200725.362681 505380.380380 0.000000
Created 1 atoms
  Time spent = 2.52e-06 secs
create_atoms 1 single 159704.852426 593593.593594 0.000000
Created 1 atoms
  Time spent = 2.505e-06 secs
create_atoms 1 single 390320.160080 505880.880881 0.000000
Created 1 atoms
  Time spent = 2.562e-06 secs
create_atoms 1 single 316908.454227 608858.858859 0.000000
Created 1 atoms
  Time spent = 2.51801e-06 secs
create_atoms 1 single 2876.438219 697072.072072 0.000000
Created 1 atoms
  Time spent = 2.764e-06 secs
create_atoms 1 single 122936.468234 554554.554555 0.000000
Created 1 atoms
  Time spent = 2.723e-06 secs
create_atoms 1 single 107053.526763 718718.718719 0.000000
Created 1 atoms
  Time spent = 2.465e-06 secs
create_atoms 1 single 283766.883442 561311.311311 0.000000
Created 1 atoms
  Time spent = 2.783e-06 secs
create_atoms 1 single 127563.781891 606981.981982 0.000000
Created 1 atoms
  Time spent = 2.643e-06 secs
create_atoms 1 single 266883.441721 697697.697698 0.000000
Created 1 atoms
  Time spent = 2.689e-06 secs
create_atoms 1 single 29264.632316 556556.556557 0.000000
Created 1 atoms
  Time spent = 2.489e-06 secs
create_atoms 1 single 339794.897449 612112.112112 0.000000
Created 1 atoms
  Time spent = 2.486e-06 secs
create_atoms 1 single 466858.429215 737862.862863 0.000000
Created 1 atoms
  Time spent = 2.498e-06 secs
create_atoms 1 single 216108.054027 512012.012012 0.000000
Created 1 atoms
  Time spent = 2.679e-06 secs
create_atoms 1 single 37268.634317 742242.242242 0.000000
Created 1 atoms
  Time spent = 2.688e-06 secs
create_atoms 1 single 57653.826913 560935.935936 0.000000
Created 1 atoms
  Time spent = 2.515e-06 secs
create_atoms 1 single 59779.889945 516266.266266 0.000000
Created 1 atoms
  Time spent = 2.659e-06 secs
create_atoms 1 single 91420.710355 690815.815816 0.000000
Created 1 atoms
  Time spent = 2.588e-06 secs
create_atoms 1 single 143571.785893 699199.199199 0.000000
Created 1 atoms
  Time spent = 2.637e-06 secs
create_atoms 1 single 142821.410705 555430.430430 0.000000
Created 1 atoms
  Time spent = 2.637e-06 secs
create_atoms 1 single 180965.482741 504879.879880 0.000000
Created 1 atoms
  Time spent = 2.815e-06 secs
create_atoms 1 single 81665.832916 695445.445445 0.000000
Created 1 atoms
  Time spent = 2.849e-06 secs
create_atoms 1 single 437093.546773 694569.569570 0.000000
Created 1 atoms
  Time spent = 2.721e-06 secs
create_atoms 1 single 259129.564782 730855.855856 0.000000
Created 1 atoms
  Time spent = 2.92101e-06 secs
create_atoms 1 single 374312.156078 709084.084084 0.000000
Created 1 atoms
  Time spent = 2.588e-06 secs
create_atoms 1 single 371935.967984 525025.025025 0.000000
Created 1 atoms
  Time spent = 2.686e-06 secs
create_atoms 1 single 55527.763882 641266.266266 0.000000
Created 1 atoms
  Time spent = 2.539e-06 secs
create_atoms 1 single 23511.755878 590090.090090 0.000000
Created 1 atoms
  Time spent = 2.809e-06 secs
create_atoms 1 single 350425.212606 655030.030030 0.000000
Created 1 atoms
  Time spent = 2.667e-06 secs
create_atoms 1 single 24137.068534 744869.869870 0.000000
Created 1 atoms
  Time spent = 2.56e-06 secs
create_atoms 1 single 165957.978989 620620.620621 0.000000
Created 1 atoms
  Time spent = 2.967e-06 secs
create_atoms 1 single 31140.570285 637637.637638 0.000000
Created 1 atoms
  Time spent = 3.112e-06 secs
create_atoms 1 single 442471.235618 581831.831832 0.000000
Created 1 atoms
  Time spent = 3.251e-06 secs
create_atoms 1 single 230990.495248 551176.176176 0.000000
Created 1 atoms
  Time spent = 1.8933e-05 secs
create_atoms 1 single 263756.878439 663788.788789 0.000000
Created 1 atoms
  Time spent = 3.017e-06 secs
create_atoms 1 single 420960.480240 651151.151151 0.000000
Created 1 atoms
  Time spent = 2.617e-06 secs
create_atoms 1 single 142696.348174 586961.961962 0.000000
Created 1 atoms
  Time spent = 2.589e-06 secs
create_atoms 1 single 85042.521261 608483.483483 0.000000
Created 1 atoms
  Time spent = 2.623e-06 secs
create_atoms 1 single 10505.252626 595595.595596 0.000000
Created 1 atoms
  Time spent = 2.568e-06 secs
create_atoms 1 single 112431.215608 623998.998999 0.000000
Created 1 atoms
  Time spent = 2.845e-06 secs
create_atoms 1 single 256378.189095 546921.921922 0.000000
Created 1 atoms
  Time spent = 2.816e-06 secs
create_atoms 1 single 62031.015508 592467.467467 0.000000
Created 1 atoms
  Time spent = 2.785e-06 secs
create_atoms 1 single 430215.107554 550800.800801 0.000000
Created 1 atoms
  Time spent = 2.635e-06 secs
create_atoms 1 single 30640.320160 580705.705706 0.000000
Created 1 atoms
  Time spent = 2.535e-06 secs
create_atoms 1 single 434592.296148 718468.468468 0.000000
Created 1 atoms
  Time spent = 2.57901e-06 secs
create_atoms 1 single 24512.256128 734609.609610 0.000000
Created 1 atoms
  Time spent = 2.795e-06 secs
create_atoms 1 single 398074.037019 566816.816817 0.000000
Created 1 atoms
  Time spent = 2.783e-06 secs
create_atoms 1 single 252751.375688 577577.577578 0.000000
Created 1 atoms
  Time spent = 2.634e-06 secs
create_atoms 1 single 284392.196098 515765.765766 0.000000
Created 1 atoms
  Time spent = 2.677e-06 secs
create_atoms 1 single 486868.434217 635135.135135 0.000000
Created 1 atoms
  Time spent = 2.777e-06 secs
create_atoms 1 single 53401.700850 708333.333333 0.000000
Created 1 atoms
  Time spent = 2.919e-06 secs
create_atoms 1 single 427588.794397 692192.192192 0.000000
Created 1 atoms
  Time spent = 2.808e-06 secs
create_atoms 1 single 236493.246623 683558.558559 0.000000
Created 1 atoms
  Time spent = 2.825e-06 secs
create_atoms 1 single 166083.041521 578203.203203 0.000000
Created 1 atoms
  Time spent = 2.605e-06 secs
create_atoms 1 single 339419.709855 585085.085085 0.000000
Created 1 atoms
  Time spent = 2.656e-06 secs
create_atoms 1 single 395197.598799 578828.828829 0.000000
Created 1 atoms
  Time spent = 3.07e-06 secs
create_atoms 1 single 244497.248624 633508.508509 0.000000
Created 1 atoms
  Time spent = 2.735e-06 secs
create_atoms 1 single 247748.874437 745745.745746 0.000000
Created 1 atoms
  Time spent = 2.797e-06 secs
create_atoms 1 single 255627.813907 586086.086086 0.000000
Created 1 atoms
  Time spent = 3.161e-06 secs
create_atoms 1 single 112181.090545 722597.597598 0.000000
Created 1 atoms
  Time spent = 2.872e-06 secs
create_atoms 1 single 330665.332666 505630.630631 0.000000
Created 1 atoms
  Time spent = 2.678e-06 secs
create_atoms 1 single 138694.347174 737362.362362 0.000000
Created 1 atoms
  Time spent = 2.824e-06 secs
create_atoms 1 single 112681.340670 515015.015015 0.000000
Created 1 atoms
  Time spent = 2.645e-06 secs
create_atoms 1 single 426088.044022 725475.475475 0.000000
Created 1 atoms
  Time spent = 2.696e-06 secs
create_atoms 1 single 171710.855428 607982.982983 0.000000
Created 1 atoms
  Time spent = 2.849e-06 secs
create_atoms 1 single 385942.971486 595720.720721 0.000000
Created 1 atoms
  Time spent = 2.789e-06 secs
create_atoms 1 single 309029.514757 621371.371371 0.000000
Created 1 atoms
  Time spent = 3.01001e-06 secs
create_atoms 1 single 438344.172086 565315.315315 0.000000
Created 1 atoms
  Time spent = 2.729e-06 secs
create_atoms 1 single 470110.055028 711086.086086 0.000000
Created 1 atoms
  Time spent = 2.79e-06 secs
create_atoms 1 single 237118.559280 640140.140140 0.000000
Created 1 atoms
  Time spent = 2.644e-06 secs
create_atoms 1 single 210230.115058 623373.373373 0.000000
Created 1 atoms
  Time spent = 2.738e-06 secs
create_atoms 1 single 310155.077539 685560.560561 0.000000
Created 1 atoms
  Time spent = 2.924e-06 secs
create_atoms 1 single 321035.517759 674299.299299 0.000000
Created 1 atoms
  Time spent = 3.02e-06 secs
create_atoms 1 single 378439.219610 634509.509510 0.000000
Created 1 atoms
  Time spent = 2.729e-06 secs
create_atoms 1 single 342296.148074 545170.170170 0.000000
Created 1 atoms
  Time spent = 3.223e-06 secs
create_atoms 1 single 44022.011006 586961.961962 0.000000
Created 1 atoms
  Time spent = 2.788e-06 secs
create_atoms 1 single 291270.635318 664539.539540 0.000000
Created 1 atoms
  Time spent = 2.611e-06 secs
create_atoms 1 single 97423.711856 579704.704705 0.000000
Created 1 atoms
  Time spent = 2.792e-06 secs
create_atoms 1 single 190470.235118 516266.266266 0.000000
Created 1 atoms
  Time spent = 2.685e-06 secs
create_atoms 1 single 4877.438719 503003.003003 0.000000
Created 1 atoms
  Time spent = 2.852e-06 secs
create_atoms 1 single 20135.067534 627252.252252 0.000000
Created 1 atoms
  Time spent = 2.61e-06 secs
create_atoms 1 single 391195.597799 734484.484484 0.000000
Created 1 atoms
  Time spent = 2.725e-06 secs
create_atoms 1 single 382816.408204 666791.791792 0.000000
Created 1 atoms
  Time spent = 2.724e-06 secs
create_atoms 1 single 149949.974987 572822.822823 0.000000
Created 1 atoms
  Time spent = 2.728e-06 secs
create_atoms 1 single 264132.066033 673548.548549 0.000000
Created 1 atoms
  Time spent = 2.721e-06 secs
create_atoms 1 single 212356.178089 577702.702703 0.000000
Created 1 atoms
  Time spent = 2.778e-06 secs
create_atoms 1 single 236118.059030 599224.224224 0.000000
Created 1 atoms
  Time spent = 2.715e-06 secs
create_atoms 1 single 173586.793397 649524.524525 0.000000
Created 1 atoms
  Time spent = 3.218e-06 secs
create_atoms 1 single 134942.471236 556931.931932 0.000000
Created 1 atoms
  Time spent = 2.742e-06 secs
create_atoms 1 single 207978.989495 739114.114114 0.000000
Created 1 atoms
  Time spent = 2.826e-06 secs
create_atoms 1 single 437468.734367 545420.420420 0.000000
Created 1 atoms
  Time spent = 2.788e-06 secs
create_atoms 1 single 285392.696348 684684.684685 0.000000
Created 1 atoms
  Time spent = 2.812e-06 secs
create_atoms 1 single 445597.798899 608358.358358 0.000000
Created 1 atoms
  Time spent = 2.946e-06 secs
create_atoms 1 single 238244.122061 733233.233233 0.000000
Created 1 atoms
  Time spent = 3.054e-06 secs
[...]
   27800    75.353976     5000 2.0515499e+13       500000 
   27900    75.643777     5000 2.0528105e+13       500000 
   28000    75.928729     5000 2.0490201e+13       500000 
   28100    76.205642     5000 2.0510744e+13       500000 
   28200    76.488168     5000 2.0454836e+13       500000 
   28300    76.766855     5000 2.0464011e+13       500000 
   28400    77.050378     5000 2.0422316e+13       500000 
   28500    77.335845     5000 2.0413812e+13       500000 
   28600    77.607732     5000 2.0409575e+13       500000 
   28700    77.891385     5000 2.0416845e+13       500000 
   28800    78.181836     5000 2.0406427e+13       500000 
   28900    78.477875     5000 2.037003e+13       500000 
   29000    78.778235     5000 2.0351494e+13       500000 
   29100    79.052737     5000 2.0335537e+13       500000 
   29200    79.332953     5000 2.0322873e+13       500000 
   29300    79.607749     5000 2.0318458e+13       500000 
   29400    79.897588     5000 2.031126e+13       500000 
   29500     80.17393     5000 2.0313304e+13       500000 
   29600    80.438032     5000 2.0317792e+13       500000 
   29700    80.713461     5000 2.0315498e+13       500000 
   29800    80.994029     5000 2.0305566e+13       500000 
   29900     81.26966     5000 2.0303578e+13       500000 
   30000    81.545928     5000 2.0282051e+13       500000 
   30100    81.828549     5000 2.0268038e+13       500000 
   30200    82.117759     5000 2.0261206e+13       500000 
   30300    82.410839     5000 2.0253047e+13       500000 
   30400    82.702422     5000 2.0249013e+13       500000 
   30500    83.011852     5000 2.0245744e+13       500000 
   30600    83.307118     5000 2.0238435e+13       500000 
   30700    83.600919     5000 2.0216943e+13       500000 
   30800    83.875879     5000 2.0202736e+13       500000 
   30900    84.177675     5000 2.0197371e+13       500000 
   31000    84.470746     5000 2.0192004e+13       500000 
   31100    84.749518     5000 2.0185548e+13       500000 
   31200    85.037452     5000 2.0181331e+13       500000 
   31300    85.327418     5000 2.0198795e+13       500000 
   31400    85.615573     5000  2.01624e+13       500000 
   31500    85.910316     5000 2.0159888e+13       500000 
   31600    86.205058     5000 2.013689e+13       500000 
   31700    86.488684     5000 2.0132557e+13       500000 
   31800    86.782156     5000 2.0124619e+13       500000 
   31900    87.076918     5000 2.0106272e+13       500000 
   32000    87.358217     5000 2.0124114e+13       500000 
   32100    87.645032     5000 2.0111146e+13       500000 
   32200    87.924519     5000 2.0114506e+13       500000 
   32300    88.206392     5000 2.0101932e+13       500000 
   32400    88.477931     5000 2.0094938e+13       500000 
   32500    88.781482     5000 2.0076759e+13       500000 
   32600    89.072919     5000 2.0066138e+13       500000 
   32700    89.350887     5000 2.0058667e+13       500000 
   32800    89.650199     5000 2.0049044e+13       500000 
   32900    89.932305     5000 2.0037911e+13       500000 
   33000    90.235787     5000 2.0010401e+13       500000 
   33100    90.526178     5000 1.9995819e+13       500000 
   33200     90.79991     5000 1.9979164e+13       500000 
   33300     91.09024     5000 1.9990672e+13       500000 
   33400    91.363489     5000 2.0042777e+13       500000 
   33500    91.647958     5000 1.9991887e+13       500000 
   33600    91.924826     5000  1.99982e+13       500000 
   33700    92.210159     5000 1.9973077e+13       500000 
   33800    92.488298     5000 2.0019649e+13       500000 
   33900    92.759047     5000 1.9955446e+13       500000 
   34000    93.028089     5000 1.9962722e+13       500000 
   34100    93.300187     5000 1.9939088e+13       500000 
   34200    93.561842     5000 1.9935123e+13       500000 
   34300    93.826811     5000 1.9936441e+13       500000 
   34400    94.089796     5000 1.992479e+13       500000 
   34500    94.363786     5000 1.9950003e+13       500000 
   34600    94.684922     5000 1.9908908e+13       500000 
   34700    94.969751     5000  1.98844e+13       500000 
   34800    95.256896     5000 1.9854547e+13       500000 
   34900    95.532455     5000 1.9815662e+13       500000 
   35000    95.821299     5000 1.9832904e+13       500000 
   35100    96.122577     5000 1.9752431e+13       500000 
   35200      96.4226     5000 1.975997e+13       500000 
   35300    96.705695     5000 1.9730534e+13       500000 
   35400    96.996838     5000  1.97049e+13       500000 
   35500    97.332328     5000 1.9697256e+13       500000 
   35600    97.622573     5000 1.9681832e+13       500000 
   35700    97.897596     5000 1.9668285e+13       500000 
   35800      98.1769     5000 1.9661137e+13       500000 
   35900    98.473785     5000 1.9632748e+13       500000 
   36000    98.773733     5000 1.9618121e+13       500000 
   36100    99.059592     5000 1.9626498e+13       500000 
   36200    99.351478     5000 1.9627749e+13       500000 
   36300    99.631166     5000 1.9590307e+13       500000 
   36400    99.920443     5000 1.9603372e+13       500000 
   36500    100.21735     5000 1.9542591e+13       500000 
   36600     100.5141     5000 1.9523263e+13       500000 
   36700    100.85636     5000 1.9512804e+13       500000 
   36800     101.1459     5000 1.9509105e+13       500000 
   36900    101.43283     5000 1.9485321e+13       500000 
   37000    101.76355     5000 1.9488922e+13       500000 
   37100    102.08012     5000 1.9510931e+13       500000 
   37200    102.38152     5000 1.9491702e+13       500000 
   37300    102.71133     5000 1.9458381e+13       500000 
   37400    103.04382     5000 1.9427741e+13       500000 
   37500    103.38211     5000 1.9415779e+13       500000 
   37600    103.70287     5000 1.9436358e+13       500000 
   37700    104.02262     5000 1.9398148e+13       500000 
   37800    104.33626     5000 1.9378958e+13       500000 
   37900     104.6482     5000 1.9395901e+13       500000 
   38000    104.98419     5000 1.9343889e+13       500000 
   38100    105.32685     5000 1.9337085e+13       500000 
   38200    105.64798     5000 1.9320721e+13       500000 
   38300    105.95917     5000 1.9304376e+13       500000 
   38400    106.23897     5000 1.9283317e+13       500000 
   38500    106.54265     5000 1.9267431e+13       500000 
   38600    106.82226     5000 1.9258078e+13       500000 
   38700     107.1055     5000 1.9250394e+13       500000 
   38800    107.39636     5000 1.9233422e+13       500000 
   38900    107.70439     5000 1.9216938e+13       500000 
   39000    108.00072     5000 1.9214516e+13       500000 
   39100    108.27818     5000 1.9204009e+13       500000 
   39200    108.57331     5000 1.9189479e+13       500000 
   39300    108.84772     5000 1.9177477e+13       500000 
   39400    109.13447     5000 1.919275e+13       500000 
   39500    109.43549     5000 1.9142943e+13       500000 
   39600    109.71249     5000 1.9132241e+13       500000 
   39700    109.99418     5000 1.9142167e+13       500000 
   39800    110.28216     5000 1.9158299e+13       500000 
   39900    110.56858     5000 1.9146132e+13       500000 
   40000    110.86229     5000 1.9117819e+13       500000 
   40100    111.15325     5000 1.9074276e+13       500000 
   40200    111.43604     5000 1.9069168e+13       500000 
   40300    111.71974     5000 1.9037172e+13       500000 
   40400     112.0149     5000 1.9036506e+13       500000 
   40500    112.29694     5000 1.9030976e+13       500000 
   40600    112.59123     5000 1.9036594e+13       500000 
   40700      112.889     5000 1.9032879e+13       500000 
   40800    113.18264     5000 1.8995587e+13       500000 
   40900    113.46495     5000 1.8973886e+13       500000 
   41000    113.76994     5000 1.8963345e+13       500000 
   41100    114.05414     5000 1.8946603e+13       500000 
   41200     114.3573     5000 1.8932254e+13       500000 
   41300    114.64093     5000 1.8921766e+13       500000 
   41400    114.93274     5000 1.8902667e+13       500000 
   41500    115.23261     5000 1.890894e+13       500000 
   41600    115.52484     5000 1.8902514e+13       500000 
   41700    115.80565     5000 1.8893484e+13       500000 
   41800     116.1083     5000 1.8881304e+13       500000 
   41900    116.40174     5000 1.8861016e+13       500000 
   42000     116.7029     5000 1.8846261e+13       500000 
   42100    117.00216     5000 1.8829844e+13       500000 
   42200    117.29909     5000 1.8841887e+13       500000 
   42300    117.58038     5000 1.8822813e+13       500000 
   42400    117.86228     5000 1.8800096e+13       500000 
   42500    118.15364     5000 1.8784262e+13       500000 
   42600     118.4571     5000 1.8749188e+13       500000 
   42700    118.74708     5000 1.8726659e+13       500000 
   42800    119.03929     5000 1.8732952e+13       500000 
   42900    119.33106     5000 1.8762784e+13       500000 
   43000    119.62457     5000 1.8713668e+13       500000 
   43100    119.90437     5000 1.8685316e+13       500000 
   43200    120.19162     5000 1.8674263e+13       500000 
   43300    120.48392     5000 1.8664575e+13       500000 
   43400     120.7782     5000 1.8659759e+13       500000 
   43500    121.10071     5000  1.86388e+13       500000 
   43600    121.40653     5000 1.8630995e+13       500000 
   43700    121.71185     5000 1.860557e+13       500000 
   43800    121.99331     5000 1.8602667e+13       500000 
   43900    122.26853     5000 1.8629149e+13       500000 
   44000    122.56936     5000 1.8561464e+13       500000 
   44100    122.84955     5000 1.8566133e+13       500000 
   44200    123.15133     5000 1.8513531e+13       500000 
   44300    123.42616     5000 1.8518727e+13       500000 
   44400    123.70797     5000 1.8459121e+13       500000 
   44500    124.00733     5000 1.8439829e+13       500000 
   44600    124.30304     5000 1.842922e+13       500000 
   44700     124.5941     5000 1.8414537e+13       500000 
   44800    124.90174     5000  1.83979e+13       500000 
   44900    125.21389     5000 1.8382006e+13       500000 
   45000    125.52312     5000 1.8384075e+13       500000 
   45100    125.83164     5000 1.8368302e+13       500000 
   45200    126.13045     5000 1.8356859e+13       500000 
   45300    126.41376     5000 1.8348721e+13       500000 
   45400    126.70631     5000 1.8345705e+13       500000 
   45500    126.99702     5000 1.8377618e+13       500000 
   45600    127.30275     5000 1.8334029e+13       500000 
   45700    127.59365     5000 1.834748e+13       500000 
   45800    127.89344     5000 1.8327759e+13       500000 
   45900    128.19695     5000 1.831354e+13       500000 
   46000    128.49934     5000 1.8295258e+13       500000 
   46100    128.79834     5000 1.8280035e+13       500000 
   46200    129.09586     5000 1.8256943e+13       500000 
   46300    129.39591     5000 1.8240715e+13       500000 
   46400    129.69543     5000 1.8226778e+13       500000 
   46500    130.00994     5000 1.8195365e+13       500000 
   46600    130.30898     5000 1.8178597e+13       500000 
   46700    130.62086     5000 1.8178435e+13       500000 
   46800    130.91436     5000 1.8176026e+13       500000 
   46900    131.19315     5000 1.815968e+13       500000 
   47000    131.50929     5000 1.8159296e+13       500000 
   47100    131.81005     5000 1.8152563e+13       500000 
   47200    132.11322     5000 1.8114529e+13       500000 
   47300    132.40309     5000 1.8078083e+13       500000 
   47400    132.69353     5000 1.8066225e+13       500000 
   47500    132.99359     5000 1.8081022e+13       500000 
   47600    133.29602     5000 1.8076672e+13       500000 
   47700    133.58301     5000 1.8058616e+13       500000 
   47800    133.88085     5000 1.8019339e+13       500000 
   47900    134.17143     5000 1.8001417e+13       500000 
   48000    134.47981     5000 1.8151684e+13       500000 
   48100    134.75686     5000 1.7977411e+13       500000 
   48200    135.05059     5000 1.798853e+13       500000 
   48300    135.35011     5000 1.7961184e+13       500000 
   48400    135.65035     5000 1.7949325e+13       500000 
   48500    135.96075     5000   1.7944e+13       500000 
   48600    136.27515     5000 1.7945798e+13       500000 
   48700    136.57036     5000 1.7936017e+13       500000 
   48800    136.86239     5000 1.7917752e+13       500000 
   48900    137.16856     5000 1.7893955e+13       500000 
   49000    137.47277     5000 1.7852809e+13       500000 
   49100    137.76035     5000 1.7852471e+13       500000 
   49200    138.05253     5000 1.784784e+13       500000 
   49300    138.34681     5000 1.7854265e+13       500000 
   49400    138.64318     5000 1.7855417e+13       500000 
   49500    138.94749     5000 1.7809074e+13       500000 
   49600    139.25687     5000 1.7795244e+13       500000 
   49700    139.55487     5000 1.7784635e+13       500000 
   49800    139.87698     5000 1.777857e+13       500000 
   49900     140.1861     5000 1.7755177e+13       500000 
   50000    140.51446     5000 1.772144e+13       500000 
   50100    140.80225     5000 1.7736521e+13       500000 
   50200    141.09592     5000 1.7672354e+13       500000 
   50300    141.39213     5000 1.7664481e+13       500000 
   50400    141.68743     5000 1.7643869e+13       500000 
   50500    141.99171     5000 1.7629575e+13       500000 
   50600    142.29117     5000 1.761091e+13       500000 
   50700    142.58726     5000 1.7599484e+13       500000 
   50800    142.87963     5000 1.7583335e+13       500000 
   50900    143.18163     5000 1.7590253e+13       500000 
   51000    143.48469     5000 1.7587634e+13       500000 
   51100    143.77701     5000 1.7615995e+13       500000 
   51200    144.06817     5000 1.7602509e+13       500000 
   51300    144.36153     5000 1.7590166e+13       500000 
   51400    144.65613     5000 1.7601597e+13       500000 
   51500    144.96382     5000  1.92524e+13       500000 
   51600      145.272     5000 1.7590128e+13       500000 
   51700    145.59232     5000 1.7696496e+13       500000 
   51800    145.88786     5000 1.7487106e+13       500000 
   51900    146.20375     5000 1.8241175e+13       500000 
   52000    146.53146     5000 1.7462483e+13       500000 
   52100    146.82572     5000 1.740382e+13       500000 
   52200    147.12328     5000 1.7386749e+13       500000 
   52300    147.42598     5000 1.7371425e+13       500000 
   52400    147.73283     5000 1.7358769e+13       500000 
   52500    148.04705     5000 1.7353339e+13       500000 
   52600    148.35856     5000 1.735992e+13       500000 
   52700    148.66312     5000 1.7401283e+13       500000 
   52800    148.99271     5000 1.736678e+13       500000 
   52900    149.27778     5000 1.7371792e+13       500000 
   53000    149.59335     5000 1.7378904e+13       500000 
   53100    149.90741     5000 1.7376499e+13       500000 
   53200    150.22534     5000 1.7342229e+13       500000 
   53300    150.52425     5000 1.7298465e+13       500000 
   53400    150.82398     5000 1.7281745e+13       500000 
   53500    151.13061     5000 1.7282857e+13       500000 
   53600    151.42876     5000 1.7288056e+13       500000 
   53700    151.74109     5000 1.7296221e+13       500000 
   53800    152.03918     5000 1.7287809e+13       500000 
   53900    152.34691     5000 1.7285315e+13       500000 
   54000    152.67053     5000 1.7284121e+13       500000 
   54100    152.98532     5000 1.7278057e+13       500000 
   54200     153.2906     5000 1.7236651e+13       500000 
   54300    153.60168     5000 1.7216596e+13       500000 
   54400    153.89141     5000 1.7177491e+13       500000 
   54500    154.20367     5000 1.7185494e+13       500000 
   54600    154.51708     5000 1.7202313e+13       500000 
   54700    154.81053     5000 1.7259058e+13       500000 
   54800    155.12397     5000 1.7256667e+13       500000 
   54900     155.4296     5000 1.7178113e+13       500000 
   55000    155.74134     5000 1.713589e+13       500000 
   55100    156.03754     5000 1.7123135e+13       500000 
   55200    156.34359     5000 1.7126924e+13       500000 
   55300    156.64007     5000 1.7125764e+13       500000 
   55400    156.93783     5000 1.7086722e+13       500000 
   55500     157.2493     5000 1.7067784e+13       500000 
   55600    157.54493     5000 1.7076684e+13       500000 
   55700    157.85382     5000 1.7108636e+13       500000 
   55800    158.15758     5000 1.7037812e+13       500000 
   55900    158.46292     5000 1.6994873e+13       500000 
   56000    158.78202     5000 1.6969831e+13       500000 
   56100    159.09362     5000 1.6952422e+13       500000 
   56200    159.40026     5000 1.6953729e+13       500000 
   56300    159.70666     5000 1.697768e+13       500000 
   56400    160.01262     5000 1.7518285e+13       500000 
   56500    160.33365     5000 1.6933603e+13       500000 
   56600    160.63635     5000 1.6925159e+13       500000 
   56700    160.94344     5000 1.6907392e+13       500000 
   56800    161.23956     5000 1.687226e+13       500000 
   56900     161.5445     5000 1.691448e+13       500000 
   57000    161.85143     5000 1.6882726e+13       500000 
   57100    162.16735     5000 1.685777e+13       500000 
   57200    162.48705     5000 1.6843285e+13       500000 
   57300     162.7921     5000 1.6820879e+13       500000 
   57400    163.09507     5000 1.9553039e+13       500000 
   57500      163.403     5000 1.6826825e+13       500000 
   57600    163.70988     5000 1.7933456e+13       500000 
   57700     164.0201     5000 1.6761504e+13       500000 
   57800    164.33211     5000 1.6742207e+13       500000 
   57900    164.65329     5000 1.6715487e+13       500000 
   58000    164.97763     5000 1.6887639e+13       500000 
   58100    165.28834     5000 1.6761402e+13       500000 
   58200    165.58747     5000 1.6726616e+13       500000 
   58300    165.90333     5000 1.6724156e+13       500000 
   58400    166.20922     5000 1.6707258e+13       500000 
   58500    166.53386     5000 1.664605e+13       500000 
   58600    166.85466     5000 1.6610987e+13       500000 
   58700    167.16384     5000 1.6621931e+13       500000 
   58800     167.4704     5000 1.6617391e+13       500000 
   58900    167.78025     5000 1.6615557e+13       500000 
   59000    168.09156     5000 1.6561536e+13       500000 
   59100     168.4167     5000 1.6576406e+13       500000 
   59200    168.73062     5000 1.655183e+13       500000 
   59300    169.04361     5000 1.6566019e+13       500000 
   59400    169.34858     5000 1.6547164e+13       500000 
   59500    169.66642     5000 1.651253e+13       500000 
   59600    169.97676     5000 1.653393e+13       500000 
   59700    170.28654     5000 1.6518227e+13       500000 
   59800    170.59019     5000 1.6514089e+13       500000 
   59900    170.90456     5000 1.6565075e+13       500000 
   60000    171.21398     5000 1.801789e+13       500000 
Loop time of 171.214 on 1 procs for 60000 steps with 5000 atoms

99.4% CPU use with 1 MPI tasks x no OpenMP threads

MPI task timing breakdown:
Section |  min time  |  avg time  |  max time  |%varavg| %total
---------------------------------------------------------------
Pair    | 11.317     | 11.317     | 11.317     |   0.0 |  6.61
Neigh   | 0.28611    | 0.28611    | 0.28611    |   0.0 |  0.17
Comm    | 0.054914   | 0.054914   | 0.054914   |   0.0 |  0.03
Output  | 1.0518     | 1.0518     | 1.0518     |   0.0 |  0.61
Modify  | 156.09     | 156.09     | 156.09     |   0.0 | 91.17
Other   |            | 2.416      |            |       |  1.41

Nlocal:    5000 ave 5000 max 5000 min
Histogram: 1 0 0 0 0 0 0 0 0 0
Nghost:    0 ave 0 max 0 min
Histogram: 1 0 0 0 0 0 0 0 0 0
Neighs:    26813 ave 26813 max 26813 min
Histogram: 1 0 0 0 0 0 0 0 0 0

Total # of neighbors = 26813
Ave neighs/atom = 5.3626
Neighbor list builds = 129
Dangerous builds = 0
Total wall time: 0:02:51
