ITEM: TIMESTEP
0
ITEM: NUMBER OF ATOMS
5000
ITEM: BOX BOUNDS ff ff pp
0.0000000000000000e+00 6.0000000000000000e+05
0.0000000000000000e+00 6.0000000000000000e+05
-3.0000000000000000e+03 3.0000000000000000e+03
ITEM: ATOMS id type x y z v_velocity v_atomstress 
1 1 3000 303000 0 0 0 
2 1 9000 303000 0 0 0 
3 1 15000 303000 0 0 0 
4 1 21000 303000 0 0 0 
5 1 27000 303000 0 0 0 
6 1 33000 303000 0 0 0 
7 1 39000 303000 0 0 0 
8 1 45000 303000 0 0 0 
9 1 51000 303000 0 0 0 
10 1 57000 303000 0 0 0 
11 1 63000 303000 0 0 0 
12 1 69000 303000 0 0 0 
13 1 75000 303000 0 0 0 
14 1 81000 303000 0 0 0 
15 1 87000 303000 0 0 0 
16 1 93000 303000 0 0 0 
17 1 99000 303000 0 0 0 
18 1 105000 303000 0 0 0 
19 1 111000 303000 0 0 0 
20 1 117000 303000 0 0 0 
21 1 123000 303000 0 0 0 
22 1 129000 303000 0 0 0 
23 1 135000 303000 0 0 0 
24 1 141000 303000 0 0 0 
25 1 147000 303000 0 0 0 
26 1 153000 303000 0 0 0 
27 1 159000 303000 0 0 0 
28 1 165000 303000 0 0 0 
29 1 171000 303000 0 0 0 
30 1 177000 303000 0 0 0 
31 1 183000 303000 0 0 0 
32 1 189000 303000 0 0 0 
33 1 195000 303000 0 0 0 
34 1 201000 303000 0 0 0 
35 1 207000 303000 0 0 0 
36 1 213000 303000 0 0 0 
37 1 219000 303000 0 0 0 
38 1 225000 303000 0 0 0 
39 1 231000 303000 0 0 0 
40 1 237000 303000 0 0 0 
41 1 243000 303000 0 0 0 
42 1 249000 303000 0 0 0 
43 1 255000 303000 0 0 0 
44 1 261000 303000 0 0 0 
45 1 267000 303000 0 0 0 
46 1 273000 303000 0 0 0 
47 1 279000 303000 0 0 0 
48 1 285000 303000 0 0 0 
49 1 291000 303000 0 0 0 
50 1 297000 303000 0 0 0 
51 1 303000 303000 0 0 0 
52 1 309000 303000 0 0 0 
53 1 315000 303000 0 0 0 
54 1 321000 303000 0 0 0 
55 1 327000 303000 0 0 0 
56 1 333000 303000 0 0 0 
57 1 339000 303000 0 0 0 
58 1 345000 303000 0 0 0 
59 1 351000 303000 0 0 0 
60 1 357000 303000 0 0 0 
61 1 363000 303000 0 0 0 
62 1 369000 303000 0 0 0 
63 1 375000 303000 0 0 0 
64 1 381000 303000 0 0 0 
65 1 387000 303000 0 0 0 
66 1 393000 303000 0 0 0 
67 1 399000 303000 0 0 0 
68 1 405000 303000 0 0 0 
69 1 411000 303000 0 0 0 
70 1 417000 303000 0 0 0 
71 1 423000 303000 0 0 0 
72 1 429000 303000 0 0 0 
73 1 435000 303000 0 0 0 
74 1 441000 303000 0 0 0 
75 1 447000 303000 0 0 0 
76 1 453000 303000 0 0 0 
77 1 459000 303000 0 0 0 
78 1 465000 303000 0 0 0 
79 1 471000 303000 0 0 0 
80 1 477000 303000 0 0 0 
81 1 483000 303000 0 0 0 
82 1 489000 303000 0 0 0 
83 1 495000 303000 0 0 0 
84 1 501000 303000 0 0 0 
85 1 507000 303000 0 0 0 
86 1 513000 303000 0 0 0 
87 1 519000 303000 0 0 0 
88 1 525000 303000 0 0 0 
89 1 531000 303000 0 0 0 
90 1 537000 303000 0 0 0 
91 1 543000 303000 0 0 0 
92 1 549000 303000 0 0 0 
93 1 555000 303000 0 0 0 
94 1 561000 303000 0 0 0 
95 1 567000 303000 0 0 0 
96 1 573000 303000 0 0 0 
97 1 579000 303000 0 0 0 
98 1 585000 303000 0 0 0 
99 1 591000 303000 0 0 0 
100 1 597000 303000 0 0 0 
101 1 3000 309000 0 0 0 
102 1 9000 309000 0 0 0 
103 1 15000 309000 0 0 0 
104 1 21000 309000 0 0 0 
105 1 27000 309000 0 0 0 
106 1 33000 309000 0 0 0 
107 1 39000 309000 0 0 0 
108 1 45000 309000 0 0 0 
109 1 51000 309000 0 0 0 
110 1 57000 309000 0 0 0 
111 1 63000 309000 0 0 0 
112 1 69000 309000 0 0 0 
113 1 75000 309000 0 0 0 
114 1 81000 309000 0 0 0 
115 1 87000 309000 0 0 0 
116 1 93000 309000 0 0 0 
117 1 99000 309000 0 0 0 
118 1 105000 309000 0 0 0 
119 1 111000 309000 0 0 0 
120 1 117000 309000 0 0 0 
121 1 123000 309000 0 0 0 
122 1 129000 309000 0 0 0 
123 1 135000 309000 0 0 0 
124 1 141000 309000 0 0 0 
125 1 147000 309000 0 0 0 
126 1 153000 309000 0 0 0 
127 1 159000 309000 0 0 0 
128 1 165000 309000 0 0 0 
129 1 171000 309000 0 0 0 
130 1 177000 309000 0 0 0 
131 1 183000 309000 0 0 0 
132 1 189000 309000 0 0 0 
133 1 195000 309000 0 0 0 
134 1 201000 309000 0 0 0 
135 1 207000 309000 0 0 0 
136 1 213000 309000 0 0 0 
137 1 219000 309000 0 0 0 
138 1 225000 309000 0 0 0 
139 1 231000 309000 0 0 0 
140 1 237000 309000 0 0 0 
141 1 243000 309000 0 0 0 
142 1 249000 309000 0 0 0 
143 1 255000 309000 0 0 0 
144 1 261000 309000 0 0 0 
145 1 267000 309000 0 0 0 
146 1 273000 309000 0 0 0 
147 1 279000 309000 0 0 0 
148 1 285000 309000 0 0 0 
149 1 291000 309000 0 0 0 
150 1 297000 309000 0 0 0 
151 1 303000 309000 0 0 0 
152 1 309000 309000 0 0 0 
153 1 315000 309000 0 0 0 
154 1 321000 309000 0 0 0 
155 1 327000 309000 0 0 0 
156 1 333000 309000 0 0 0 
157 1 339000 309000 0 0 0 
158 1 345000 309000 0 0 0 
159 1 351000 309000 0 0 0 
160 1 357000 309000 0 0 0 
161 1 363000 309000 0 0 0 
162 1 369000 309000 0 0 0 
163 1 375000 309000 0 0 0 
164 1 381000 309000 0 0 0 
165 1 387000 309000 0 0 0 
166 1 393000 309000 0 0 0 
167 1 399000 309000 0 0 0 
168 1 405000 309000 0 0 0 
169 1 411000 309000 0 0 0 
170 1 417000 309000 0 0 0 
171 1 423000 309000 0 0 0 
172 1 429000 309000 0 0 0 
173 1 435000 309000 0 0 0 
174 1 441000 309000 0 0 0 
175 1 447000 309000 0 0 0 
176 1 453000 309000 0 0 0 
177 1 459000 309000 0 0 0 
178 1 465000 309000 0 0 0 
179 1 471000 309000 0 0 0 
180 1 477000 309000 0 0 0 
181 1 483000 309000 0 0 0 
182 1 489000 309000 0 0 0 
183 1 495000 309000 0 0 0 
184 1 501000 309000 0 0 0 
185 1 507000 309000 0 0 0 
186 1 513000 309000 0 0 0 
187 1 519000 309000 0 0 0 
188 1 525000 309000 0 0 0 
189 1 531000 309000 0 0 0 
190 1 537000 309000 0 0 0 
191 1 543000 309000 0 0 0 
192 1 549000 309000 0 0 0 
193 1 555000 309000 0 0 0 
194 1 561000 309000 0 0 0 
195 1 567000 309000 0 0 0 
196 1 573000 309000 0 0 0 
197 1 579000 309000 0 0 0 
198 1 585000 309000 0 0 0 
199 1 591000 309000 0 0 0 
200 1 597000 309000 0 0 0 
201 1 3000 315000 0 0 0 
202 1 9000 315000 0 0 0 
203 1 15000 315000 0 0 0 
204 1 21000 315000 0 0 0 
205 1 27000 315000 0 0 0 
206 1 33000 315000 0 0 0 
207 1 39000 315000 0 0 0 
208 1 45000 315000 0 0 0 
209 1 51000 315000 0 0 0 
210 1 57000 315000 0 0 0 
211 1 63000 315000 0 0 0 
212 1 69000 315000 0 0 0 
213 1 75000 315000 0 0 0 
214 1 81000 315000 0 0 0 
215 1 87000 315000 0 0 0 
216 1 93000 315000 0 0 0 
217 1 99000 315000 0 0 0 
218 1 105000 315000 0 0 0 
219 1 111000 315000 0 0 0 
220 1 117000 315000 0 0 0 
221 1 123000 315000 0 0 0 
222 1 129000 315000 0 0 0 
223 1 135000 315000 0 0 0 
224 1 141000 315000 0 0 0 
225 1 147000 315000 0 0 0 
226 1 153000 315000 0 0 0 
227 1 159000 315000 0 0 0 
228 1 165000 315000 0 0 0 
229 1 171000 315000 0 0 0 
230 1 177000 315000 0 0 0 
231 1 183000 315000 0 0 0 
232 1 189000 315000 0 0 0 
233 1 195000 315000 0 0 0 
234 1 201000 315000 0 0 0 
235 1 207000 315000 0 0 0 
236 1 213000 315000 0 0 0 
237 1 219000 315000 0 0 0 
238 1 225000 315000 0 0 0 
239 1 231000 315000 0 0 0 
240 1 237000 315000 0 0 0 
241 1 243000 315000 0 0 0 
242 1 249000 315000 0 0 0 
243 1 255000 315000 0 0 0 
244 1 261000 315000 0 0 0 
245 1 267000 315000 0 0 0 
246 1 273000 315000 0 0 0 
247 1 279000 315000 0 0 0 
248 1 285000 315000 0 0 0 
249 1 291000 315000 0 0 0 
250 1 297000 315000 0 0 0 
251 1 303000 315000 0 0 0 
252 1 309000 315000 0 0 0 
253 1 315000 315000 0 0 0 
254 1 321000 315000 0 0 0 
255 1 327000 315000 0 0 0 
256 1 333000 315000 0 0 0 
257 1 339000 315000 0 0 0 
258 1 345000 315000 0 0 0 
259 1 351000 315000 0 0 0 
260 1 357000 315000 0 0 0 
261 1 363000 315000 0 0 0 
262 1 369000 315000 0 0 0 
263 1 375000 315000 0 0 0 
264 1 381000 315000 0 0 0 
265 1 387000 315000 0 0 0 
266 1 393000 315000 0 0 0 
267 1 399000 315000 0 0 0 
268 1 405000 315000 0 0 0 
269 1 411000 315000 0 0 0 
270 1 417000 315000 0 0 0 
271 1 423000 315000 0 0 0 
272 1 429000 315000 0 0 0 
273 1 435000 315000 0 0 0 
274 1 441000 315000 0 0 0 
275 1 447000 315000 0 0 0 
276 1 453000 315000 0 0 0 
277 1 459000 315000 0 0 0 
278 1 465000 315000 0 0 0 
279 1 471000 315000 0 0 0 
280 1 477000 315000 0 0 0 
281 1 483000 315000 0 0 0 
282 1 489000 315000 0 0 0 
283 1 495000 315000 0 0 0 
284 1 501000 315000 0 0 0 
285 1 507000 315000 0 0 0 
286 1 513000 315000 0 0 0 
287 1 519000 315000 0 0 0 
288 1 525000 315000 0 0 0 
289 1 531000 315000 0 0 0 
290 1 537000 315000 0 0 0 
291 1 543000 315000 0 0 0 
292 1 549000 315000 0 0 0 
293 1 555000 315000 0 0 0 
294 1 561000 315000 0 0 0 
295 1 567000 315000 0 0 0 
296 1 573000 315000 0 0 0 
297 1 579000 315000 0 0 0 
298 1 585000 315000 0 0 0 
299 1 591000 315000 0 0 0 
300 1 597000 315000 0 0 0 
301 1 3000 321000 0 0 0 
302 1 9000 321000 0 0 0 
303 1 15000 321000 0 0 0 
304 1 21000 321000 0 0 0 
305 1 27000 321000 0 0 0 
306 1 33000 321000 0 0 0 
307 1 39000 321000 0 0 0 
308 1 45000 321000 0 0 0 
309 1 51000 321000 0 0 0 
310 1 57000 321000 0 0 0 
311 1 63000 321000 0 0 0 
312 1 69000 321000 0 0 0 
313 1 75000 321000 0 0 0 
314 1 81000 321000 0 0 0 
315 1 87000 321000 0 0 0 
316 1 93000 321000 0 0 0 
317 1 99000 321000 0 0 0 
318 1 105000 321000 0 0 0 
319 1 111000 321000 0 0 0 
320 1 117000 321000 0 0 0 
321 1 123000 321000 0 0 0 
322 1 129000 321000 0 0 0 
323 1 135000 321000 0 0 0 
324 1 141000 321000 0 0 0 
325 1 147000 321000 0 0 0 
326 1 153000 321000 0 0 0 
327 1 159000 321000 0 0 0 
328 1 165000 321000 0 0 0 
329 1 171000 321000 0 0 0 
330 1 177000 321000 0 0 0 
331 1 183000 321000 0 0 0 
332 1 189000 321000 0 0 0 
333 1 195000 321000 0 0 0 
334 1 201000 321000 0 0 0 
335 1 207000 321000 0 0 0 
336 1 213000 321000 0 0 0 
337 1 219000 321000 0 0 0 
338 1 225000 321000 0 0 0 
339 1 231000 321000 0 0 0 
340 1 237000 321000 0 0 0 
341 1 243000 321000 0 0 0 
342 1 249000 321000 0 0 0 
343 1 255000 321000 0 0 0 
344 1 261000 321000 0 0 0 
345 1 267000 321000 0 0 0 
346 1 273000 321000 0 0 0 
347 1 279000 321000 0 0 0 
348 1 285000 321000 0 0 0 
349 1 291000 321000 0 0 0 
350 1 297000 321000 0 0 0 
351 1 303000 321000 0 0 0 
352 1 309000 321000 0 0 0 
353 1 315000 321000 0 0 0 
354 1 321000 321000 0 0 0 
355 1 327000 321000 0 0 0 
356 1 333000 321000 0 0 0 
357 1 339000 321000 0 0 0 
358 1 345000 321000 0 0 0 
359 1 351000 321000 0 0 0 
360 1 357000 321000 0 0 0 
361 1 363000 321000 0 0 0 
362 1 369000 321000 0 0 0 
363 1 375000 321000 0 0 0 
364 1 381000 321000 0 0 0 
365 1 387000 321000 0 0 0 
366 1 393000 321000 0 0 0 
367 1 399000 321000 0 0 0 
368 1 405000 321000 0 0 0 
369 1 411000 321000 0 0 0 
370 1 417000 321000 0 0 0 
371 1 423000 321000 0 0 0 
372 1 429000 321000 0 0 0 
373 1 435000 321000 0 0 0 
374 1 441000 321000 0 0 0 
375 1 447000 321000 0 0 0 
376 1 453000 321000 0 0 0 
377 1 459000 321000 0 0 0 
378 1 465000 321000 0 0 0 
379 1 471000 321000 0 0 0 
380 1 477000 321000 0 0 0 
381 1 483000 321000 0 0 0 
382 1 489000 321000 0 0 0 
383 1 495000 321000 0 0 0 
384 1 501000 321000 0 0 0 
385 1 507000 321000 0 0 0 
386 1 513000 321000 0 0 0 
387 1 519000 321000 0 0 0 
388 1 525000 321000 0 0 0 
389 1 531000 321000 0 0 0 
390 1 537000 321000 0 0 0 
391 1 543000 321000 0 0 0 
392 1 549000 321000 0 0 0 
393 1 555000 321000 0 0 0 
394 1 561000 321000 0 0 0 
395 1 567000 321000 0 0 0 
396 1 573000 321000 0 0 0 
397 1 579000 321000 0 0 0 
398 1 585000 321000 0 0 0 
399 1 591000 321000 0 0 0 
400 1 597000 321000 0 0 0 
401 1 3000 327000 0 0 0 
402 1 9000 327000 0 0 0 
403 1 15000 327000 0 0 0 
404 1 21000 327000 0 0 0 
405 1 27000 327000 0 0 0 
406 1 33000 327000 0 0 0 
407 1 39000 327000 0 0 0 
408 1 45000 327000 0 0 0 
409 1 51000 327000 0 0 0 
410 1 57000 327000 0 0 0 
411 1 63000 327000 0 0 0 
412 1 69000 327000 0 0 0 
413 1 75000 327000 0 0 0 
414 1 81000 327000 0 0 0 
415 1 87000 327000 0 0 0 
416 1 93000 327000 0 0 0 
417 1 99000 327000 0 0 0 
418 1 105000 327000 0 0 0 
419 1 111000 327000 0 0 0 
420 1 117000 327000 0 0 0 
421 1 123000 327000 0 0 0 
422 1 129000 327000 0 0 0 
423 1 135000 327000 0 0 0 
424 1 141000 327000 0 0 0 
425 1 147000 327000 0 0 0 
426 1 153000 327000 0 0 0 
427 1 159000 327000 0 0 0 
428 1 165000 327000 0 0 0 
429 1 171000 327000 0 0 0 
430 1 177000 327000 0 0 0 
431 1 183000 327000 0 0 0 
432 1 189000 327000 0 0 0 
433 1 195000 327000 0 0 0 
434 1 201000 327000 0 0 0 
435 1 207000 327000 0 0 0 
436 1 213000 327000 0 0 0 
437 1 219000 327000 0 0 0 
438 1 225000 327000 0 0 0 
439 1 231000 327000 0 0 0 
440 1 237000 327000 0 0 0 
441 1 243000 327000 0 0 0 
442 1 249000 327000 0 0 0 
443 1 255000 327000 0 0 0 
444 1 261000 327000 0 0 0 
445 1 267000 327000 0 0 0 
446 1 273000 327000 0 0 0 
447 1 279000 327000 0 0 0 
448 1 285000 327000 0 0 0 
449 1 291000 327000 0 0 0 
450 1 297000 327000 0 0 0 
451 1 303000 327000 0 0 0 
452 1 309000 327000 0 0 0 
453 1 315000 327000 0 0 0 
454 1 321000 327000 0 0 0 
455 1 327000 327000 0 0 0 
456 1 333000 327000 0 0 0 
457 1 339000 327000 0 0 0 
458 1 345000 327000 0 0 0 
459 1 351000 327000 0 0 0 
460 1 357000 327000 0 0 0 
461 1 363000 327000 0 0 0 
462 1 369000 327000 0 0 0 
463 1 375000 327000 0 0 0 
464 1 381000 327000 0 0 0 
465 1 387000 327000 0 0 0 
466 1 393000 327000 0 0 0 
467 1 399000 327000 0 0 0 
468 1 405000 327000 0 0 0 
469 1 411000 327000 0 0 0 
470 1 417000 327000 0 0 0 
471 1 423000 327000 0 0 0 
472 1 429000 327000 0 0 0 
473 1 435000 327000 0 0 0 
474 1 441000 327000 0 0 0 
475 1 447000 327000 0 0 0 
476 1 453000 327000 0 0 0 
477 1 459000 327000 0 0 0 
478 1 465000 327000 0 0 0 
479 1 471000 327000 0 0 0 
480 1 477000 327000 0 0 0 
481 1 483000 327000 0 0 0 
482 1 489000 327000 0 0 0 
483 1 495000 327000 0 0 0 
484 1 501000 327000 0 0 0 
485 1 507000 327000 0 0 0 
486 1 513000 327000 0 0 0 
487 1 519000 327000 0 0 0 
488 1 525000 327000 0 0 0 
489 1 531000 327000 0 0 0 
490 1 537000 327000 0 0 0 
491 1 543000 327000 0 0 0 
492 1 549000 327000 0 0 0 
493 1 555000 327000 0 0 0 
494 1 561000 327000 0 0 0 
495 1 567000 327000 0 0 0 
496 1 573000 327000 0 0 0 
497 1 579000 327000 0 0 0 
498 1 585000 327000 0 0 0 
499 1 591000 327000 0 0 0 
500 1 597000 327000 0 0 0 
501 1 3000 333000 0 0 0 
502 1 9000 333000 0 0 0 
503 1 15000 333000 0 0 0 
504 1 21000 333000 0 0 0 
505 1 27000 333000 0 0 0 
506 1 33000 333000 0 0 0 
507 1 39000 333000 0 0 0 
508 1 45000 333000 0 0 0 
509 1 51000 333000 0 0 0 
510 1 57000 333000 0 0 0 
511 1 63000 333000 0 0 0 
512 1 69000 333000 0 0 0 
513 1 75000 333000 0 0 0 
514 1 81000 333000 0 0 0 
515 1 87000 333000 0 0 0 
516 1 93000 333000 0 0 0 
517 1 99000 333000 0 0 0 
518 1 105000 333000 0 0 0 
519 1 111000 333000 0 0 0 
520 1 117000 333000 0 0 0 
521 1 123000 333000 0 0 0 
522 1 129000 333000 0 0 0 
523 1 135000 333000 0 0 0 
524 1 141000 333000 0 0 0 
525 1 147000 333000 0 0 0 
526 1 153000 333000 0 0 0 
527 1 159000 333000 0 0 0 
528 1 165000 333000 0 0 0 
529 1 171000 333000 0 0 0 
530 1 177000 333000 0 0 0 
531 1 183000 333000 0 0 0 
532 1 189000 333000 0 0 0 
533 1 195000 333000 0 0 0 
534 1 201000 333000 0 0 0 
535 1 207000 333000 0 0 0 
536 1 213000 333000 0 0 0 
537 1 219000 333000 0 0 0 
538 1 225000 333000 0 0 0 
539 1 231000 333000 0 0 0 
540 1 237000 333000 0 0 0 
541 1 243000 333000 0 0 0 
542 1 249000 333000 0 0 0 
543 1 255000 333000 0 0 0 
544 1 261000 333000 0 0 0 
545 1 267000 333000 0 0 0 
546 1 273000 333000 0 0 0 
547 1 279000 333000 0 0 0 
548 1 285000 333000 0 0 0 
549 1 291000 333000 0 0 0 
550 1 297000 333000 0 0 0 
551 1 303000 333000 0 0 0 
552 1 309000 333000 0 0 0 
553 1 315000 333000 0 0 0 
554 1 321000 333000 0 0 0 
555 1 327000 333000 0 0 0 
556 1 333000 333000 0 0 0 
557 1 339000 333000 0 0 0 
558 1 345000 333000 0 0 0 
559 1 351000 333000 0 0 0 
560 1 357000 333000 0 0 0 
561 1 363000 333000 0 0 0 
562 1 369000 333000 0 0 0 
563 1 375000 333000 0 0 0 
564 1 381000 333000 0 0 0 
565 1 387000 333000 0 0 0 
566 1 393000 333000 0 0 0 
567 1 399000 333000 0 0 0 
568 1 405000 333000 0 0 0 
569 1 411000 333000 0 0 0 
570 1 417000 333000 0 0 0 
571 1 423000 333000 0 0 0 
572 1 429000 333000 0 0 0 
573 1 435000 333000 0 0 0 
574 1 441000 333000 0 0 0 
575 1 447000 333000 0 0 0 
576 1 453000 333000 0 0 0 
577 1 459000 333000 0 0 0 
578 1 465000 333000 0 0 0 
579 1 471000 333000 0 0 0 
580 1 477000 333000 0 0 0 
581 1 483000 333000 0 0 0 
582 1 489000 333000 0 0 0 
583 1 495000 333000 0 0 0 
584 1 501000 333000 0 0 0 
585 1 507000 333000 0 0 0 
586 1 513000 333000 0 0 0 
587 1 519000 333000 0 0 0 
588 1 525000 333000 0 0 0 
589 1 531000 333000 0 0 0 
590 1 537000 333000 0 0 0 
591 1 543000 333000 0 0 0 
592 1 549000 333000 0 0 0 
593 1 555000 333000 0 0 0 
594 1 561000 333000 0 0 0 
595 1 567000 333000 0 0 0 
596 1 573000 333000 0 0 0 
597 1 579000 333000 0 0 0 
598 1 585000 333000 0 0 0 
599 1 591000 333000 0 0 0 
600 1 597000 333000 0 0 0 
601 1 3000 339000 0 0 0 
602 1 9000 339000 0 0 0 
603 1 15000 339000 0 0 0 
604 1 21000 339000 0 0 0 
605 1 27000 339000 0 0 0 
606 1 33000 339000 0 0 0 
607 1 39000 339000 0 0 0 
608 1 45000 339000 0 0 0 
609 1 51000 339000 0 0 0 
610 1 57000 339000 0 0 0 
611 1 63000 339000 0 0 0 
612 1 69000 339000 0 0 0 
613 1 75000 339000 0 0 0 
614 1 81000 339000 0 0 0 
615 1 87000 339000 0 0 0 
616 1 93000 339000 0 0 0 
617 1 99000 339000 0 0 0 
618 1 105000 339000 0 0 0 
619 1 111000 339000 0 0 0 
620 1 117000 339000 0 0 0 
621 1 123000 339000 0 0 0 
622 1 129000 339000 0 0 0 
623 1 135000 339000 0 0 0 
624 1 141000 339000 0 0 0 
625 1 147000 339000 0 0 0 
626 1 153000 339000 0 0 0 
627 1 159000 339000 0 0 0 
628 1 165000 339000 0 0 0 
629 1 171000 339000 0 0 0 
630 1 177000 339000 0 0 0 
631 1 183000 339000 0 0 0 
632 1 189000 339000 0 0 0 
633 1 195000 339000 0 0 0 
634 1 201000 339000 0 0 0 
635 1 207000 339000 0 0 0 
636 1 213000 339000 0 0 0 
637 1 219000 339000 0 0 0 
638 1 225000 339000 0 0 0 
639 1 231000 339000 0 0 0 
640 1 237000 339000 0 0 0 
641 1 243000 339000 0 0 0 
642 1 249000 339000 0 0 0 
643 1 255000 339000 0 0 0 
644 1 261000 339000 0 0 0 
645 1 267000 339000 0 0 0 
646 1 273000 339000 0 0 0 
647 1 279000 339000 0 0 0 
648 1 285000 339000 0 0 0 
649 1 291000 339000 0 0 0 
650 1 297000 339000 0 0 0 
651 1 303000 339000 0 0 0 
652 1 309000 339000 0 0 0 
653 1 315000 339000 0 0 0 
654 1 321000 339000 0 0 0 
655 1 327000 339000 0 0 0 
656 1 333000 339000 0 0 0 
657 1 339000 339000 0 0 0 
658 1 345000 339000 0 0 0 
659 1 351000 339000 0 0 0 
660 1 357000 339000 0 0 0 
661 1 363000 339000 0 0 0 
662 1 369000 339000 0 0 0 
663 1 375000 339000 0 0 0 
664 1 381000 339000 0 0 0 
665 1 387000 339000 0 0 0 
666 1 393000 339000 0 0 0 
667 1 399000 339000 0 0 0 
668 1 405000 339000 0 0 0 
669 1 411000 339000 0 0 0 
670 1 417000 339000 0 0 0 
671 1 423000 339000 0 0 0 
672 1 429000 339000 0 0 0 
673 1 435000 339000 0 0 0 
674 1 441000 339000 0 0 0 
675 1 447000 339000 0 0 0 
676 1 453000 339000 0 0 0 
677 1 459000 339000 0 0 0 
678 1 465000 339000 0 0 0 
679 1 471000 339000 0 0 0 
680 1 477000 339000 0 0 0 
681 1 483000 339000 0 0 0 
682 1 489000 339000 0 0 0 
683 1 495000 339000 0 0 0 
684 1 501000 339000 0 0 0 
685 1 507000 339000 0 0 0 
686 1 513000 339000 0 0 0 
687 1 519000 339000 0 0 0 
688 1 525000 339000 0 0 0 
689 1 531000 339000 0 0 0 
690 1 537000 339000 0 0 0 
691 1 543000 339000 0 0 0 
692 1 549000 339000 0 0 0 
693 1 555000 339000 0 0 0 
694 1 561000 339000 0 0 0 
695 1 567000 339000 0 0 0 
696 1 573000 339000 0 0 0 
697 1 579000 339000 0 0 0 
698 1 585000 339000 0 0 0 
699 1 591000 339000 0 0 0 
700 1 597000 339000 0 0 0 
701 1 3000 345000 0 0 0 
702 1 9000 345000 0 0 0 
703 1 15000 345000 0 0 0 
704 1 21000 345000 0 0 0 
705 1 27000 345000 0 0 0 
706 1 33000 345000 0 0 0 
707 1 39000 345000 0 0 0 
708 1 45000 345000 0 0 0 
709 1 51000 345000 0 0 0 
710 1 57000 345000 0 0 0 
711 1 63000 345000 0 0 0 
712 1 69000 345000 0 0 0 
713 1 75000 345000 0 0 0 
714 1 81000 345000 0 0 0 
715 1 87000 345000 0 0 0 
716 1 93000 345000 0 0 0 
717 1 99000 345000 0 0 0 
718 1 105000 345000 0 0 0 
719 1 111000 345000 0 0 0 
720 1 117000 345000 0 0 0 
721 1 123000 345000 0 0 0 
722 1 129000 345000 0 0 0 
723 1 135000 345000 0 0 0 
724 1 141000 345000 0 0 0 
725 1 147000 345000 0 0 0 
726 1 153000 345000 0 0 0 
727 1 159000 345000 0 0 0 
728 1 165000 345000 0 0 0 
729 1 171000 345000 0 0 0 
730 1 177000 345000 0 0 0 
731 1 183000 345000 0 0 0 
732 1 189000 345000 0 0 0 
733 1 195000 345000 0 0 0 
734 1 201000 345000 0 0 0 
735 1 207000 345000 0 0 0 
736 1 213000 345000 0 0 0 
737 1 219000 345000 0 0 0 
738 1 225000 345000 0 0 0 
739 1 231000 345000 0 0 0 
740 1 237000 345000 0 0 0 
741 1 243000 345000 0 0 0 
742 1 249000 345000 0 0 0 
743 1 255000 345000 0 0 0 
744 1 261000 345000 0 0 0 
745 1 267000 345000 0 0 0 
746 1 273000 345000 0 0 0 
747 1 279000 345000 0 0 0 
748 1 285000 345000 0 0 0 
749 1 291000 345000 0 0 0 
750 1 297000 345000 0 0 0 
751 1 303000 345000 0 0 0 
752 1 309000 345000 0 0 0 
753 1 315000 345000 0 0 0 
754 1 321000 345000 0 0 0 
755 1 327000 345000 0 0 0 
756 1 333000 345000 0 0 0 
757 1 339000 345000 0 0 0 
758 1 345000 345000 0 0 0 
759 1 351000 345000 0 0 0 
760 1 357000 345000 0 0 0 
761 1 363000 345000 0 0 0 
762 1 369000 345000 0 0 0 
763 1 375000 345000 0 0 0 
764 1 381000 345000 0 0 0 
765 1 387000 345000 0 0 0 
766 1 393000 345000 0 0 0 
767 1 399000 345000 0 0 0 
768 1 405000 345000 0 0 0 
769 1 411000 345000 0 0 0 
770 1 417000 345000 0 0 0 
771 1 423000 345000 0 0 0 
772 1 429000 345000 0 0 0 
773 1 435000 345000 0 0 0 
774 1 441000 345000 0 0 0 
775 1 447000 345000 0 0 0 
776 1 453000 345000 0 0 0 
777 1 459000 345000 0 0 0 
778 1 465000 345000 0 0 0 
779 1 471000 345000 0 0 0 
780 1 477000 345000 0 0 0 
781 1 483000 345000 0 0 0 
782 1 489000 345000 0 0 0 
783 1 495000 345000 0 0 0 
784 1 501000 345000 0 0 0 
785 1 507000 345000 0 0 0 
786 1 513000 345000 0 0 0 
787 1 519000 345000 0 0 0 
788 1 525000 345000 0 0 0 
789 1 531000 345000 0 0 0 
790 1 537000 345000 0 0 0 
791 1 543000 345000 0 0 0 
792 1 549000 345000 0 0 0 
793 1 555000 345000 0 0 0 
794 1 561000 345000 0 0 0 
795 1 567000 345000 0 0 0 
796 1 573000 345000 0 0 0 
797 1 579000 345000 0 0 0 
798 1 585000 345000 0 0 0 
799 1 591000 345000 0 0 0 
800 1 597000 345000 0 0 0 
801 1 3000 351000 0 0 0 
802 1 9000 351000 0 0 0 
803 1 15000 351000 0 0 0 
804 1 21000 351000 0 0 0 
805 1 27000 351000 0 0 0 
806 1 33000 351000 0 0 0 
807 1 39000 351000 0 0 0 
808 1 45000 351000 0 0 0 
809 1 51000 351000 0 0 0 
810 1 57000 351000 0 0 0 
811 1 63000 351000 0 0 0 
812 1 69000 351000 0 0 0 
813 1 75000 351000 0 0 0 
814 1 81000 351000 0 0 0 
815 1 87000 351000 0 0 0 
816 1 93000 351000 0 0 0 
817 1 99000 351000 0 0 0 
818 1 105000 351000 0 0 0 
819 1 111000 351000 0 0 0 
820 1 117000 351000 0 0 0 
821 1 123000 351000 0 0 0 
822 1 129000 351000 0 0 0 
823 1 135000 351000 0 0 0 
824 1 141000 351000 0 0 0 
825 1 147000 351000 0 0 0 
826 1 153000 351000 0 0 0 
827 1 159000 351000 0 0 0 
828 1 165000 351000 0 0 0 
829 1 171000 351000 0 0 0 
830 1 177000 351000 0 0 0 
831 1 183000 351000 0 0 0 
832 1 189000 351000 0 0 0 
833 1 195000 351000 0 0 0 
834 1 201000 351000 0 0 0 
835 1 207000 351000 0 0 0 
836 1 213000 351000 0 0 0 
837 1 219000 351000 0 0 0 
838 1 225000 351000 0 0 0 
839 1 231000 351000 0 0 0 
840 1 237000 351000 0 0 0 
841 1 243000 351000 0 0 0 
842 1 249000 351000 0 0 0 
843 1 255000 351000 0 0 0 
844 1 261000 351000 0 0 0 
845 1 267000 351000 0 0 0 
846 1 273000 351000 0 0 0 
847 1 279000 351000 0 0 0 
848 1 285000 351000 0 0 0 
849 1 291000 351000 0 0 0 
850 1 297000 351000 0 0 0 
851 1 303000 351000 0 0 0 
852 1 309000 351000 0 0 0 
853 1 315000 351000 0 0 0 
854 1 321000 351000 0 0 0 
855 1 327000 351000 0 0 0 
856 1 333000 351000 0 0 0 
857 1 339000 351000 0 0 0 
858 1 345000 351000 0 0 0 
859 1 351000 351000 0 0 0 
860 1 357000 351000 0 0 0 
861 1 363000 351000 0 0 0 
862 1 369000 351000 0 0 0 
863 1 375000 351000 0 0 0 
864 1 381000 351000 0 0 0 
865 1 387000 351000 0 0 0 
866 1 393000 351000 0 0 0 
867 1 399000 351000 0 0 0 
868 1 405000 351000 0 0 0 
869 1 411000 351000 0 0 0 
870 1 417000 351000 0 0 0 
871 1 423000 351000 0 0 0 
872 1 429000 351000 0 0 0 
873 1 435000 351000 0 0 0 
874 1 441000 351000 0 0 0 
875 1 447000 351000 0 0 0 
876 1 453000 351000 0 0 0 
877 1 459000 351000 0 0 0 
878 1 465000 351000 0 0 0 
879 1 471000 351000 0 0 0 
880 1 477000 351000 0 0 0 
881 1 483000 351000 0 0 0 
882 1 489000 351000 0 0 0 
883 1 495000 351000 0 0 0 
884 1 501000 351000 0 0 0 
885 1 507000 351000 0 0 0 
886 1 513000 351000 0 0 0 
887 1 519000 351000 0 0 0 
888 1 525000 351000 0 0 0 
889 1 531000 351000 0 0 0 
890 1 537000 351000 0 0 0 
891 1 543000 351000 0 0 0 
892 1 549000 351000 0 0 0 
893 1 555000 351000 0 0 0 
894 1 561000 351000 0 0 0 
895 1 567000 351000 0 0 0 
896 1 573000 351000 0 0 0 
897 1 579000 351000 0 0 0 
898 1 585000 351000 0 0 0 
899 1 591000 351000 0 0 0 
900 1 597000 351000 0 0 0 
901 1 3000 357000 0 0 0 
902 1 9000 357000 0 0 0 
903 1 15000 357000 0 0 0 
904 1 21000 357000 0 0 0 
905 1 27000 357000 0 0 0 
906 1 33000 357000 0 0 0 
907 1 39000 357000 0 0 0 
908 1 45000 357000 0 0 0 
909 1 51000 357000 0 0 0 
910 1 57000 357000 0 0 0 
911 1 63000 357000 0 0 0 
912 1 69000 357000 0 0 0 
913 1 75000 357000 0 0 0 
914 1 81000 357000 0 0 0 
915 1 87000 357000 0 0 0 
916 1 93000 357000 0 0 0 
917 1 99000 357000 0 0 0 
918 1 105000 357000 0 0 0 
919 1 111000 357000 0 0 0 
920 1 117000 357000 0 0 0 
921 1 123000 357000 0 0 0 
922 1 129000 357000 0 0 0 
923 1 135000 357000 0 0 0 
924 1 141000 357000 0 0 0 
925 1 147000 357000 0 0 0 
926 1 153000 357000 0 0 0 
927 1 159000 357000 0 0 0 
928 1 165000 357000 0 0 0 
929 1 171000 357000 0 0 0 
930 1 177000 357000 0 0 0 
931 1 183000 357000 0 0 0 
932 1 189000 357000 0 0 0 
933 1 195000 357000 0 0 0 
934 1 201000 357000 0 0 0 
935 1 207000 357000 0 0 0 
936 1 213000 357000 0 0 0 
937 1 219000 357000 0 0 0 
938 1 225000 357000 0 0 0 
939 1 231000 357000 0 0 0 
940 1 237000 357000 0 0 0 
941 1 243000 357000 0 0 0 
942 1 249000 357000 0 0 0 
943 1 255000 357000 0 0 0 
944 1 261000 357000 0 0 0 
945 1 267000 357000 0 0 0 
946 1 273000 357000 0 0 0 
947 1 279000 357000 0 0 0 
948 1 285000 357000 0 0 0 
949 1 291000 357000 0 0 0 
950 1 297000 357000 0 0 0 
951 1 303000 357000 0 0 0 
952 1 309000 357000 0 0 0 
953 1 315000 357000 0 0 0 
954 1 321000 357000 0 0 0 
955 1 327000 357000 0 0 0 
956 1 333000 357000 0 0 0 
957 1 339000 357000 0 0 0 
958 1 345000 357000 0 0 0 
959 1 351000 357000 0 0 0 
960 1 357000 357000 0 0 0 
961 1 363000 357000 0 0 0 
962 1 369000 357000 0 0 0 
963 1 375000 357000 0 0 0 
964 1 381000 357000 0 0 0 
965 1 387000 357000 0 0 0 
966 1 393000 357000 0 0 0 
967 1 399000 357000 0 0 0 
968 1 405000 357000 0 0 0 
969 1 411000 357000 0 0 0 
970 1 417000 357000 0 0 0 
971 1 423000 357000 0 0 0 
972 1 429000 357000 0 0 0 
973 1 435000 357000 0 0 0 
974 1 441000 357000 0 0 0 
975 1 447000 357000 0 0 0 
976 1 453000 357000 0 0 0 
977 1 459000 357000 0 0 0 
978 1 465000 357000 0 0 0 
979 1 471000 357000 0 0 0 
980 1 477000 357000 0 0 0 
981 1 483000 357000 0 0 0 
982 1 489000 357000 0 0 0 
983 1 495000 357000 0 0 0 
984 1 501000 357000 0 0 0 
985 1 507000 357000 0 0 0 
986 1 513000 357000 0 0 0 
987 1 519000 357000 0 0 0 
988 1 525000 357000 0 0 0 
989 1 531000 357000 0 0 0 
990 1 537000 357000 0 0 0 
991 1 543000 357000 0 0 0 
992 1 549000 357000 0 0 0 
993 1 555000 357000 0 0 0 
994 1 561000 357000 0 0 0 
995 1 567000 357000 0 0 0 
996 1 573000 357000 0 0 0 
997 1 579000 357000 0 0 0 
998 1 585000 357000 0 0 0 
999 1 591000 357000 0 0 0 
1000 1 597000 357000 0 0 0 
1001 1 3000 363000 0 0 0 
1002 1 9000 363000 0 0 0 
1003 1 15000 363000 0 0 0 
1004 1 21000 363000 0 0 0 
1005 1 27000 363000 0 0 0 
1006 1 33000 363000 0 0 0 
1007 1 39000 363000 0 0 0 
1008 1 45000 363000 0 0 0 
1009 1 51000 363000 0 0 0 
1010 1 57000 363000 0 0 0 
1011 1 63000 363000 0 0 0 
1012 1 69000 363000 0 0 0 
1013 1 75000 363000 0 0 0 
1014 1 81000 363000 0 0 0 
1015 1 87000 363000 0 0 0 
1016 1 93000 363000 0 0 0 
1017 1 99000 363000 0 0 0 
1018 1 105000 363000 0 0 0 
1019 1 111000 363000 0 0 0 
1020 1 117000 363000 0 0 0 
1021 1 123000 363000 0 0 0 
1022 1 129000 363000 0 0 0 
1023 1 135000 363000 0 0 0 
1024 1 141000 363000 0 0 0 
1025 1 147000 363000 0 0 0 
1026 1 153000 363000 0 0 0 
1027 1 159000 363000 0 0 0 
1028 1 165000 363000 0 0 0 
1029 1 171000 363000 0 0 0 
1030 1 177000 363000 0 0 0 
1031 1 183000 363000 0 0 0 
1032 1 189000 363000 0 0 0 
1033 1 195000 363000 0 0 0 
1034 1 201000 363000 0 0 0 
1035 1 207000 363000 0 0 0 
1036 1 213000 363000 0 0 0 
1037 1 219000 363000 0 0 0 
1038 1 225000 363000 0 0 0 
1039 1 231000 363000 0 0 0 
1040 1 237000 363000 0 0 0 
1041 1 243000 363000 0 0 0 
1042 1 249000 363000 0 0 0 
1043 1 255000 363000 0 0 0 
1044 1 261000 363000 0 0 0 
1045 1 267000 363000 0 0 0 
1046 1 273000 363000 0 0 0 
1047 1 279000 363000 0 0 0 
1048 1 285000 363000 0 0 0 
1049 1 291000 363000 0 0 0 
1050 1 297000 363000 0 0 0 
1051 1 303000 363000 0 0 0 
1052 1 309000 363000 0 0 0 
1053 1 315000 363000 0 0 0 
1054 1 321000 363000 0 0 0 
1055 1 327000 363000 0 0 0 
1056 1 333000 363000 0 0 0 
1057 1 339000 363000 0 0 0 
1058 1 345000 363000 0 0 0 
1059 1 351000 363000 0 0 0 
1060 1 357000 363000 0 0 0 
1061 1 363000 363000 0 0 0 
1062 1 369000 363000 0 0 0 
1063 1 375000 363000 0 0 0 
1064 1 381000 363000 0 0 0 
1065 1 387000 363000 0 0 0 
1066 1 393000 363000 0 0 0 
1067 1 399000 363000 0 0 0 
1068 1 405000 363000 0 0 0 
1069 1 411000 363000 0 0 0 
1070 1 417000 363000 0 0 0 
1071 1 423000 363000 0 0 0 
1072 1 429000 363000 0 0 0 
1073 1 435000 363000 0 0 0 
1074 1 441000 363000 0 0 0 
1075 1 447000 363000 0 0 0 
1076 1 453000 363000 0 0 0 
1077 1 459000 363000 0 0 0 
1078 1 465000 363000 0 0 0 
1079 1 471000 363000 0 0 0 
1080 1 477000 363000 0 0 0 
1081 1 483000 363000 0 0 0 
1082 1 489000 363000 0 0 0 
1083 1 495000 363000 0 0 0 
1084 1 501000 363000 0 0 0 
1085 1 507000 363000 0 0 0 
1086 1 513000 363000 0 0 0 
1087 1 519000 363000 0 0 0 
1088 1 525000 363000 0 0 0 
1089 1 531000 363000 0 0 0 
1090 1 537000 363000 0 0 0 
1091 1 543000 363000 0 0 0 
1092 1 549000 363000 0 0 0 
1093 1 555000 363000 0 0 0 
1094 1 561000 363000 0 0 0 
1095 1 567000 363000 0 0 0 
1096 1 573000 363000 0 0 0 
1097 1 579000 363000 0 0 0 
1098 1 585000 363000 0 0 0 
1099 1 591000 363000 0 0 0 
1100 1 597000 363000 0 0 0 
1101 1 3000 369000 0 0 0 
1102 1 9000 369000 0 0 0 
1103 1 15000 369000 0 0 0 
1104 1 21000 369000 0 0 0 
1105 1 27000 369000 0 0 0 
1106 1 33000 369000 0 0 0 
1107 1 39000 369000 0 0 0 
1108 1 45000 369000 0 0 0 
1109 1 51000 369000 0 0 0 