# vtk DataFile Version 2.0
Time step 16
ASCII
DATASET UNSTRUCTURED_GRID
POINTS 5000 float
96094.1 442818.0 0
396140.0 440355.0 0
400486.0 440013.0 0
403471.0 442104.0 0
84501.7 450287.0 0
88387.8 447532.0 0
92096.3 445162.0 0
95016.1 446886.0 0
99853.9 440325.0 0
102378.0 443617.0 0
106038.0 445052.0 0
110258.0 443853.0 0
115801.0 443492.0 0
119817.0 447714.0 0
125042.0 446416.0 0
129768.0 444876.0 0
134806.0 445725.0 0
139427.0 446737.0 0
143318.0 446290.0 0
147572.0 446330.0 0
152501.0 446301.0 0
157687.0 445669.0 0
162680.0 445816.0 0
167017.0 445632.0 0
171815.0 444431.0 0
177725.0 444514.0 0
182928.0 443691.0 0
187375.0 445555.0 0
192500.0 446749.0 0
196095.0 445928.0 0
201736.0 445258.0 0
207651.0 446036.0 0
212985.0 445374.0 0
218129.0 446458.0 0
222481.0 446470.0 0
225801.0 445724.0 0
230433.0 445581.0 0
235810.0 446572.0 0
241169.0 445277.0 0
246499.0 447283.0 0
252674.0 445259.0 0
259038.0 445745.0 0
263762.0 446821.0 0
268730.0 445739.0 0
273926.0 445992.0 0
278881.0 444678.0 0
286326.0 446318.0 0
291718.0 446777.0 0
297322.0 444651.0 0
303634.0 445415.0 0
312083.0 445831.0 0
317881.0 446472.0 0
323188.0 446180.0 0
327497.0 446705.0 0
332113.0 446244.0 0
337110.0 445771.0 0
345053.0 445088.0 0
354115.0 446435.0 0
360347.0 444194.0 0
366519.0 444698.0 0
370473.0 441353.0 0
374830.0 444344.0 0
380273.0 444623.0 0
385479.0 444080.0 0
390286.0 441543.0 0
394054.0 445321.0 0
400157.0 443081.0 0
398272.0 445923.0 0
402599.0 445915.0 0
406745.0 444729.0 0
410695.0 447277.0 0
414499.0 449224.0 0
417719.0 450938.0 0
77671.9 454007.0 0
80625.3 451938.0 0
83385.1 455134.0 0
88320.0 451613.0 0
92050.0 453445.0 0
92345.9 449291.0 0
98924.8 447057.0 0
103471.0 448217.0 0
100672.0 451135.0 0
108094.0 449583.0 0
112977.0 448164.0 0
116310.0 450651.0 0
119307.0 452109.0 0
122577.0 451427.0 0
128742.0 449140.0 0
132888.0 451466.0 0
137884.0 451245.0 0
143036.0 450175.0 0
146997.0 450640.0 0
151989.0 451080.0 0
156827.0 449689.0 0
161265.0 450479.0 0
166499.0 450301.0 0
173041.0 449980.0 0
178443.0 449914.0 0
183597.0 448748.0 0
188668.0 449977.0 0
193622.0 450902.0 0
198300.0 450256.0 0
203950.0 450861.0 0
213707.0 449922.0 0
209383.0 451100.0 0
217613.0 451534.0 0
222044.0 451300.0 0
226817.0 449956.0 0
232215.0 450997.0 0
237696.0 451819.0 0
243294.0 451666.0 0
248456.0 451357.0 0
252672.0 451826.0 0
257259.0 450387.0 0
262318.0 450997.0 0
267080.0 450591.0 0
271624.0 449903.0 0
277019.0 450278.0 0
282030.0 448010.0 0
282821.0 451698.0 0
287500.0 451408.0 0
292900.0 451272.0 0
298237.0 450163.0 0
303118.0 451087.0 0
307668.0 447932.0 0
307391.0 451223.0 0
312501.0 451603.0 0
317476.0 451350.0 0
322342.0 450634.0 0
327500.0 451388.0 0
332500.0 451461.0 0
340605.0 447671.0 0
337373.0 450435.0 0
343411.0 450223.0 0
349580.0 447477.0 0
347570.0 450422.0 0
351665.0 451270.0 0
360925.0 450349.0 0
357153.0 450560.0 0
364222.0 448702.0 0
370727.0 448927.0 0
377079.0 448672.0 0
380536.0 449994.0 0
383959.0 448731.0 0
389257.0 447624.0 0
391182.0 451720.0 0
395729.0 450122.0 0
401044.0 449563.0 0
406683.0 449373.0 0
404380.0 452685.0 0
411316.0 451861.0 0
415721.0 453836.0 0
420547.0 452762.0 0
423769.0 454747.0 0
67595.6 460697.0 0
71156.9 457893.0 0
71936.0 460992.0 0
74202.9 455835.0 0
78470.4 457452.0 0
82072.0 459603.0 0
87991.1 455251.0 0
91531.7 458354.0 0
95261.1 455380.0 0
96823.8 451910.0 0
103924.0 452388.0 0
100518.0 455796.0 0
107643.0 455171.0 0
112081.0 452779.0 0
116064.0 454535.0 0
119583.0 456209.0 0
123579.0 456286.0 0
127800.0 453750.0 0
131907.0 457410.0 0
137117.0 456765.0 0
141463.0 454373.0 0
146734.0 455551.0 0
156530.0 454276.0 0
162018.0 456117.0 0
170096.0 454780.0 0
176380.0 455675.0 0
182260.0 453886.0 0
188120.0 456135.0 0
194330.0 455925.0 0
200035.0 455356.0 0
204316.0 456326.0 0
208141.0 456013.0 0
213320.0 454732.0 0
217709.0 456462.0 0
222569.0 455575.0 0
226879.0 454960.0 0
232446.0 456462.0 0
237427.0 456244.0 0
241801.0 456898.0 0
246856.0 455433.0 0
251799.0 456721.0 0
257725.0 455139.0 0
262711.0 455775.0 0
267477.0 455047.0 0
273035.0 455149.0 0
279814.0 454343.0 0
283478.0 456641.0 0
287130.0 456738.0 0
290897.0 455530.0 0
296605.0 455170.0 0
302093.0 456293.0 0
307533.0 455654.0 0
313016.0 456759.0 0
318000.0 455865.0 0
322233.0 454626.0 0
326376.0 456782.0 0
335935.0 455024.0 0
331399.0 456386.0 0
340843.0 454060.0 0
346235.0 454692.0 0
351171.0 456116.0 0
355089.0 454265.0 0
360180.0 454992.0 0
364976.0 452872.0 0
369139.0 455309.0 0
375456.0 454352.0 0
382111.0 453756.0 0
387104.0 452193.0 0
388684.0 456515.0 0
393978.0 455879.0 0
399879.0 454674.0 0
408361.0 454925.0 0
404641.0 457263.0 0
412680.0 457409.0 0
417048.0 457843.0 0
420014.0 456034.0 0
420852.0 460436.0 0
427207.0 457207.0 0
423872.0 458215.0 0
430652.0 459897.0 0
63230.2 463771.0 0
67166.3 465203.0 0
74846.0 459658.0 0
70563.9 463644.0 0
75008.9 464701.0 0
78662.6 461995.0 0
86381.2 459375.0 0
83024.8 463685.0 0
87315.5 463256.0 0
96346.6 458525.0 0
90296.5 462114.0 0
94263.0 462893.0 0
99246.4 461494.0 0
104568.0 460097.0 0
110966.0 459837.0 0
116127.0 458815.0 0
120688.0 460721.0 0
126613.0 459861.0 0
130312.0 461432.0 0
134730.0 461580.0 0
138488.0 460632.0 0
143065.0 461017.0 0
152161.0 457430.0 0
148195.0 460204.0 0
156944.0 459478.0 0
153712.0 462081.0 0
160521.0 460836.0 0
166686.0 458271.0 0
164463.0 461895.0 0
170984.0 460860.0 0
177167.0 462228.0 0
182354.0 459359.0 0
186738.0 461769.0 0
191745.0 461267.0 0
197313.0 460639.0 0
203133.0 460484.0 0
208805.0 462371.0 0
214405.0 460396.0 0
218757.0 461700.0 0
222069.0 459836.0 0
227551.0 460504.0 0
234324.0 460846.0 0
237863.0 459570.0 0
241776.0 461500.0 0
246241.0 460618.0 0
251524.0 461978.0 0
255877.0 459861.0 0
260340.0 459516.0 0
266339.0 459728.0 0
271739.0 461415.0 0
278336.0 459855.0 0
284334.0 461371.0 0
288735.0 459857.0 0
292943.0 461606.0 0
298898.0 461503.0 0
303979.0 461728.0 0
307500.0 461552.0 0
312164.0 461374.0 0
316126.0 460391.0 0
320950.0 460057.0 0
325589.0 461966.0 0
329460.0 460215.0 0
333888.0 462185.0 0
339093.0 459402.0 0
345296.0 460913.0 0
356078.0 458294.0 0
351883.0 461664.0 0
360073.0 461127.0 0
364761.0 458269.0 0
369432.0 460904.0 0
379625.0 458837.0 0
384449.0 458119.0 0
382707.0 461985.0 0
388119.0 462320.0 0
394261.0 461710.0 0
398154.0 459100.0 0
398714.0 462595.0 0
402349.0 460809.0 0
408386.0 460100.0 0
405944.0 463725.0 0
412659.0 461677.0 0
416261.0 461095.0 0
419491.0 463944.0 0
426527.0 461121.0 0
424425.0 464714.0 0
429841.0 464683.0 0
434612.0 462271.0 0
438953.0 465405.0 0
53132.3 470103.0 0
58404.2 467499.0 0
63577.4 468706.0 0
60443.8 471011.0 0
71101.8 467694.0 0
74467.1 469109.0 0
77916.3 469942.0 0
79322.3 466058.0 0
82579.1 468801.0 0
86175.1 466565.0 0
90361.4 465685.0 0
93698.6 468227.0 0
97745.3 465936.0 0
102108.0 464797.0 0
101515.0 468552.0 0
105595.0 467112.0 0
107892.0 463770.0 0
107996.0 469890.0 0
111073.0 467023.0 0
115170.0 463601.0 0
119531.0 466186.0 0
124615.0 464788.0 0
129248.0 464732.0 0
133242.0 465896.0 0
138518.0 465309.0 0
148566.0 464534.0 0
144046.0 466798.0 0
153108.0 466867.0 0
159148.0 465801.0 0
167683.0 464133.0 0
164739.0 466432.0 0
171184.0 466860.0 0
183065.0 466266.0 0
193803.0 465342.0 0
189324.0 466194.0 0
198331.0 466562.0 0
203243.0 465583.0 0
212160.0 466624.0 0
216356.0 465016.0 0
221209.0 465350.0 0
226358.0 467125.0 0
232012.0 465362.0 0
237966.0 464304.0 0
242865.0 466152.0 0
248051.0 465697.0 0
252892.0 466009.0 0
257723.0 465045.0 0
262627.0 463097.0 0
267553.0 465638.0 0
272643.0 467301.0 0
278419.0 466508.0 0
283507.0 465950.0 0
288766.0 465176.0 0
293427.0 466088.0 0
297418.0 467525.0 0
302639.0 466034.0 0
306716.0 466407.0 0
311540.0 466172.0 0
316503.0 464849.0 0
321783.0 465721.0 0
330394.0 465584.0 0
326641.0 466344.0 0
341003.0 465184.0 0
336657.0 466040.0 0
345540.0 467458.0 0
350423.0 467243.0 0
356413.0 465567.0 0
364813.0 463134.0 0
361331.0 466085.0 0
368227.0 466089.0 0
375080.0 462560.0 0
372344.0 467120.0 0
379130.0 466639.0 0
383717.0 465743.0 0
392312.0 467130.0 0
397164.0 466145.0 0
401698.0 465611.0 0
405016.0 467577.0 0
408499.0 467343.0 0
410363.0 464126.0 0
411784.0 468036.0 0
415402.0 465855.0 0
420473.0 467230.0 0
424051.0 469482.0 0
427955.0 468348.0 0
432531.0 469988.0 0
434267.0 466137.0 0
440335.0 469027.0 0
436757.0 468994.0 0
443577.0 466940.0 0
446883.0 469570.0 0
41601.9 476264.0 0
44640.1 474045.0 0
48573.7 472647.0 0
52002.1 474545.0 0
56942.5 473413.0 0
62022.5 473865.0 0
66350.3 473225.0 0
67695.1 469122.0 0
70503.8 471865.0 0
74171.1 472964.0 0
78164.0 474696.0 0
84003.7 473347.0 0
80553.2 472231.0 0
88258.2 470294.0 0
97795.6 470707.0 0
104250.0 471292.0 0
108070.0 473517.0 0
112710.0 472130.0 0
115563.0 468438.0 0
117691.0 472212.0 0
122984.0 470672.0 0
129345.0 470001.0 0
135092.0 470325.0 0
140314.0 470950.0 0
145182.0 471517.0 0
149686.0 470832.0 0
154003.0 471710.0 0
158194.0 471644.0 0
162553.0 470294.0 0
167194.0 470345.0 0
172500.0 472655.0 0
176900.0 468498.0 0
186976.0 471181.0 0
192499.0 470716.0 0
197906.0 472267.0 0
202676.0 470167.0 0
207369.0 467754.0 0
206713.0 472368.0 0
210686.0 471126.0 0
216431.0 470916.0 0
222729.0 471010.0 0
228345.0 472672.0 0
236046.0 469302.0 0
240961.0 471733.0 0
246438.0 472288.0 0
250915.0 470166.0 0
256765.0 471251.0 0
262820.0 468674.0 0
268244.0 471060.0 0
272864.0 472189.0 0
277816.0 472532.0 0
282029.0 469882.0 0
287046.0 471262.0 0
292967.0 470558.0 0
301766.0 469936.0 0
306024.0 471906.0 0
311258.0 471884.0 0
316579.0 469958.0 0
321953.0 471629.0 0
327546.0 470930.0 0
333365.0 469773.0 0
340936.0 471192.0 0
346626.0 472236.0 0
350883.0 471809.0 0
354115.0 469746.0 0
358992.0 470867.0 0
364772.0 469870.0 0
369874.0 472796.0 0
375523.0 471060.0 0
379554.0 471076.0 0
382851.0 470092.0 0
387260.0 468501.0 0
396362.0 471560.0 0
402178.0 471245.0 0
406688.0 470460.0 0
410624.0 471705.0 0
414370.0 470294.0 0
418837.0 471084.0 0
415001.0 474503.0 0
423174.0 474000.0 0
428432.0 473437.0 0
437604.0 472644.0 0
443019.0 471505.0 0
445005.0 475325.0 0
446779.0 473204.0 0
[...]
POINT_DATA 5000
SCALARS Radius float 1
LOOKUP_TABLE default
4931.38 6324.23 3843.58 4194.5 5379.87 4792.73 4736.58 3485.26 4329.05 4151.94 4049.23 5337.48 6124.89 5708.81 5252.48 4780.03 5495.39 3996.0 3856.1 4665.12 3383.4 4133.88 4834.9 3850.77 6044.04 5415.48 5120.0 3863.18 2356.98 4998.37 6182.6 5492.18 5258.36 5061.3 3642.12 3163.97 5812.43 5122.66 5906.14 5484.19 7513.1 5254.28 4436.4 5733.48 4672.91 5580.89 5645.7 5176.86 6810.52 5840.26 6110.27 5561.06 5073.35 3615.22 5670.04 4380.59 6716.79 5759.91 7613.27 4951.03 5529.52 5255.32 6037.08 5096.78 6756.95 4129.43 3320.52 4727.24 4270.53 5191.63 5344.25 4593.7 4150.99 4478.15 4043.57 5925.6 4501.51 5513.6 4556.36 6082.81 4685.34 3191.99 5601.05 4929.8 3586.91 3103.0 3554.9 4015.92 5542.21 4487.31 3936.02 4044.71 5980.74 4094.62 4927.02 5546.39 5325.36 5484.83 5085.53 5351.6 4730.36 4715.55 5867.73 3951.75 5013.56 4499.64 4375.68 5542.27 5054.98 6030.06 5170.02 3557.27 4927.31 4688.68 4402.52 4517.56 4182.53 5903.42 3588.44 3955.56 3761.32 4118.05 4366.19 5553.16 3672.51 2938.66 4940.78 4231.61 4008.92 3942.53 3379.84 3589.27 4827.82 3997.1 3607.45 3260.67 5123.52 3038.33 4392.68 4333.2 7199.21 4523.7 2240.39 5091.39 5293.9 3912.37 6142.94 4602.25 5082.47 4790.08 4763.45 5445.87 4216.92 4177.94 5113.21 4107.03 3929.19 3771.48 5681.38 4138.42 3708.04 6013.14 3240.09 5110.37 4382.74 5664.98 5927.43 4651.28 4384.42 3693.63 4516.43 5481.78 5637.59 4937.14 5043.05 5816.2 5109.54 6483.19 5945.65 6759.9 5538.89 7021.47 5416.38 6059.59 2720.68 4955.55 5701.86 3563.63 4238.81 4468.59 5885.03 2837.58 5325.02 5200.76 5017.13 4862.64 5185.34 4432.58 6684.56 3968.64 4688.67 2635.86 5292.64 6166.5 5065.13 5936.02 5305.17 4861.08 4003.05 5390.22 4805.87 4712.33 5227.21 5697.78 4667.36 4091.31 6372.62 4295.38 5615.42 7565.34 5923.5 4612.68 4973.83 6342.25 6691.39 5344.0 4840.84 6045.46 3815.26 4704.72 5908.1 4742.68 4571.7 5634.83 5782.6 4862.21 4271.69 4502.5 5922.5 5198.77 5987.17 5147.67 3979.82 4901.41 2765.2 5138.31 5264.06 6327.9 6355.42 4362.19 5690.56 4948.92 3115.91 4493.48 3307.12 5924.89 5693.81 4002.16 4174.52 4138.16 3486.22 3829.13 4684.5 6230.49 6458.82 5418.62 4601.27 5493.32 5740.68 5926.61 6051.14 5836.15 3261.21 4345.55 6704.06 3653.41 3871.88 3856.01 5246.2 4390.66 5279.39 3673.74 5205.43 6116.18 7447.37 4924.6 4385.06 4733.32 7184.19 2899.43 2924.37 3867.67 4290.3 5399.73 4660.72 3888.21 5891.05 6038.78 6902.81 4254.17 6644.76 5629.19 5090.24 5740.84 5530.87 4281.49 4310.18 7134.64 5978.9 4187.56 3629.62 4997.27 5135.69 4301.06 4020.32 4245.72 4541.21 4344.58 6048.7 5896.46 5495.84 6268.1 5820.48 7034.11 6261.42 2586.12 5499.11 3633.87 4850.01 3970.25 5643.58 4292.06 5011.31 5006.58 4602.86 4659.59 3688.8 4548.16 4048.37 3369.23 5449.18 5492.26 5244.78 5762.84 3937.74 4749.8 6084.86 4778.34 5478.92 5551.36 6894.71 3091.3 4414.54 5789.98 7054.71 3641.64 5489.43 5747.75 4277.89 4796.33 4195.44 5539.32 5360.19 6496.85 5600.93 4874.39 5541.59 4124.71 5728.85 4827.23 4911.47 5803.39 5863.59 4381.97 6257.19 3255.82 5242.73 2812.98 4065.69 5603.15 4695.45 6052.7 3921.18 3798.62 5308.1 3666.57 4907.89 4937.02 5655.21 4786.6 4645.41 4433.59 6445.94 4320.28 5542.14 4218.06 6308.71 4716.19 5514.76 3456.98 4877.67 4290.14 3066.13 6562.18 4156.38 5316.75 4164.68 6133.92 5022.8 4178.4 3719.84 3784.5 4861.06 3979.26 3471.03 5253.55 5011.84 6946.21 5433.8 6125.34 4011.77 4527.08 5347.48 4810.12 5215.05 2775.04 5577.04 5586.81 4621.75 4551.24 5358.59 4220.88 4515.71 6519.71 6640.13 5082.6 5810.84 4230.54 5094.44 3748.24 4655.49 4467.94 4850.81 6038.14 6138.47 5527.54 5573.7 5697.4 4727.62 5054.25 4270.95 4055.8 7325.81 5280.17 6425.26 4794.96 6186.19 4839.34 5083.08 6834.49 6337.56 5525.39 3998.5 5938.34 4024.3 6394.38 5555.28 4737.14 4686.65 5834.74 5556.96 5788.23 5581.75 6392.01 6730.19 4907.06 3735.44 4073.93 6043.3 5952.75 6332.36 6122.55 2739.94 4931.53 5480.13 6695.82 6405.76 3498.2 5105.16 4302.5 6006.16 5448.61 6009.88 7055.53 5669.65 5934.22 3095.48 3780.23 4166.08 6481.79 5320.28 4298.67 5960.66 3999.48 4203.26 6608.73 6057.22 4359.62 5062.71 5690.26 4156.2 4497.59 5965.78 4374.35 6396.74 4138.46 3821.72 4986.77 6318.18 4481.53 3948.17 4581.13 5330.45 4219.07 3610.4 6387.01 5367.52 4322.15 5210.03 3092.35 3629.96 5478.47 5351.39 6142.37 6061.47 4933.21 5375.47 2540.31 5120.49 6029.66 5262.61 6302.8 5409.61 6038.2 4005.44 5206.78 5555.88 6732.43 5143.58 6362.12 4484.76 4840.01 2980.99 5611.2 7933.0 4455.12 5173.87 4894.16 5380.13 5711.87 5118.27 5169.36 5932.23 5791.61 3369.13 4479.66 3043.85 5367.2 5461.13 4726.76 3599.45 5839.13 5489.34 5163.9 5708.14 5537.72 3920.42 8332.24 6155.31 4223.33 5911.67 5329.64 3323.28 5709.62 5835.78 5794.24 2476.04 4678.38 5050.65 4827.33 5513.57 5013.67 5729.23 5826.04 5624.49 5762.59 4123.6 5374.51 6739.08 5224.12 4797.52 4569.12 4796.58 5873.69 4962.09 5654.31 5188.81 4730.41 3745.84 5696.88 3923.03 5607.14 5975.63 5252.34 5564.02 4274.61 2965.79 6898.19 6035.6 5137.34 5423.0 5077.33 3856.59 4746.52 5413.79 6338.89 6202.55 5025.39 4714.54 5893.5 3320.11 5030.91 6022.17 5119.37 3982.23 6163.38 4566.18 4723.12 3459.9 4964.09 5201.36 5024.9 4306.53 5094.81 5972.06 5713.22 5861.71 5028.96 4359.04 3183.98 3866.16 3794.63 4524.28 3778.1 5152.36 4511.82 5826.64 4220.65 6820.42 4816.2 4896.52 4751.02 3372.79 4941.22 5282.64 4715.72 4669.66 4808.52 5046.33 5607.24 5053.92 6352.26 5495.68 3847.38 3818.59 4863.72 5002.48 6623.85 4262.82 5102.36 4342.9 4553.56 4051.44 6049.55 5941.72 5991.09 4127.74 3942.07 5133.97 7443.72 3937.08 5260.34 5371.02 5206.48 6586.45 5226.0 5339.78 3365.82 4143.78 7092.87 4850.14 7042.12 6326.39 6817.32 4471.58 6643.85 3637.61 6098.14 4472.17 6222.42 4938.74 5470.77 4643.85 4004.04 5082.74 4289.17 6915.83 6072.45 4410.55 7099.43 5526.14 5198.29 3689.45 3975.31 5572.95 3868.18 6723.16 5584.06 7111.16 3817.13 4547.19 5507.24 6851.54 4583.31 4503.89 5806.08 4997.27 4853.39 4093.08 4809.42 4449.22 5543.27 4717.05 5659.17 6135.57 5998.38 4312.67 5423.8 4270.24 4989.15 5017.78 5015.69 6175.81 4727.24 6677.09 4305.57 6959.81 4829.35 5201.67 6321.41 4089.76 5526.55 3192.41 5184.56 5215.15 4987.87 3315.57 5804.71 4764.96 5727.3 4242.52 5356.51 4277.88 3057.03 4087.15 4143.08 7500.97 3948.23 5228.18 5065.11 5787.31 5868.82 5069.84 4050.9 4978.31 4241.89 5054.74 4099.77 4537.32 4656.78 5126.91 6600.94 4788.58 6155.1 4709.35 5876.71 4373.3 4750.78 5029.78 4538.95 4163.5 5724.64 4970.88 4763.66 5965.15 5163.55 4666.81 4636.5 4819.73 3382.7 3954.91 6471.55 5085.71 2965.01 5644.82 4319.79 6263.44 5960.56 6343.14 5774.97 5501.93 4020.95 5463.38 5462.21 5945.21 3474.39 5750.71 4831.47 6470.3 4200.03 6062.05 4735.33 5092.37 6444.77 6314.07 4287.63 5315.4 4516.28 6449.45 4044.45 5125.78 3824.16 5344.43 4373.47 5045.38 5372.61 3686.21 6480.17 5023.15 4377.07 3813.22 5570.3 4336.42 5243.29 7589.94 3130.65 5628.24 5856.11 5287.2 3327.49 4109.88 4234.94 4562.29 5013.13 5080.66 3417.33 4926.42 4164.13 4642.34 4520.1 4947.52 5874.89 4293.03 4389.21 3791.79 4424.7 4925.44 4754.05 4951.47 6084.93 4307.28 3697.96 4739.42 5538.93 5020.12 4745.45 2631.9 5281.28 6255.18 4668.71 4758.21 7228.46 6362.14 6719.88 5978.82 3927.99 5266.5 4523.88 4948.98 5227.52 4414.48 4981.9 4092.24 5163.02 7144.24 3600.43 4906.82 5131.24 5196.67 6496.67 5474.8 6262.72 3664.11 6515.84 2990.77 4888.6 5078.86 4780.2 4940.42 5100.1 3703.1 6090.91 4946.42 5923.4 3295.83 5081.78 4459.28 5499.39 6116.33 6250.23 6413.02 4863.27 4118.84 5862.86 6313.06 3493.7 4719.7 6939.12 4406.4 5411.85 4413.85 4844.57 4027.46 4470.98 5759.46 5776.37 3921.08 4190.31 3627.82 5678.96 5262.19 4244.9 6070.58 6034.41 5350.88 5130.91 5402.24 4519.22 6445.22 3844.9 3695.36 5101.59 3963.86 4306.11 3848.93 5935.47 3402.32 5903.66 4528.49 5004.67 5365.89 5992.26 3960.8 5070.39 4980.85 5714.58 5110.45 5208.32 5248.77 4083.97 4607.02 5153.74 3895.51 4528.09 4165.81 5813.4 6291.51 4128.98 5882.89 6246.22 4188.32 5246.61 4100.38 5344.77 4723.48 4899.11 5097.87 4278.07 7267.18 6256.02 5320.92 5269.18 4406.1 5034.59 4942.77 4263.33 5080.18 4454.63 5912.61 4066.38 3279.1 4403.98 4560.84 4729.43 5776.57 4562.74 5598.74 5687.83 5004.23 6442.69 6320.71 4648.04 6607.87 5117.47 3163.78 4925.63 3293.56 5882.65 4739.14 4918.77 4434.19 4371.99 3561.29 5187.7 4219.78 4623.61 4188.3 4963.34 3885.86 5019.93 5235.29 5177.64 4260.92 4479.94 5453.3 4407.9 3492.19 4584.5 5122.63 6049.79 2315.64 5374.98 4703.08 6345.13 4390.41 5274.19 5516.95 5313.22 3905.51 3999.94 4864.22 3901.8 5511.88 5083.41 7055.42 6048.86 4285.32 5490.43 5022.28 5452.83 4959.34 4948.5 4527.02 4531.14 4564.34 3838.56 4871.44 5076.35 6020.48 6375.99 5200.05 5234.29 5313.66 5419.37 4466.03 4511.54 5409.33 5196.0 4923.9 4973.78 3329.99 3947.47 3296.27 4713.25 4204.84 6243.0 6673.96 3556.85 5441.96 3435.9 5174.89 4288.3 5370.52 4652.29 5774.81 3746.31 5498.32 5027.98 5346.27 6475.1 4969.21 2691.29 2845.98 5289.52 5314.85 4305.43 5450.44 6510.17 5742.65 5592.32 5381.16 5565.13 6193.35 6086.96 5233.78 5653.9 5046.21 5683.26 5894.61 5139.5 7493.3 4814.55 3527.05 5698.77 4721.32 3464.83 2477.07 4305.16 5092.28 5274.14 4903.82 5746.28 4082.47 5511.6 6261.75 4338.08 4378.3 5469.47 4255.31 5660.16 6134.99 4094.73 4440.57 4718.54 5548.29 6766.43 5916.16 5226.56 5599.49 4097.57 5017.5 5563.79 6171.13 2395.5 3497.9 4512.11 6248.6 5486.68 3836.45 5683.61 5100.25 6894.26 4986.51 5197.52 5178.99 5383.07 4591.87 5013.42 4790.78 4247.15 6552.22 5651.07 6248.81 5273.35 4091.8 2651.49 4645.58 5512.23 5275.32 5985.29 4898.94 4178.15 4613.31 4733.04 6119.09 5788.66 5091.68 7531.29 5069.25 5048.89 5935.03 3161.47 3991.03 6390.78 7435.25 6826.57 4788.87 4495.87 6022.72 4643.31 5527.33 6917.52 5402.21 4989.09 4880.14 4982.31 4307.48 3848.54 5941.4 5331.02 4871.96 4863.23 4402.67 4470.61 4631.83 4384.88 6887.27 3701.27 6008.49 4806.34 4287.53 5612.21 4929.14 5945.08 3979.54 5304.13 5944.09 5833.06 4923.41 4497.31 6413.11 5384.76 5529.42 5257.12 4965.89 5243.43 5659.95 5551.9 4152.85 2908.7 4453.64 3757.34 6415.61 4517.73 4687.64 4419.71 5037.06 4541.8 4989.56 3838.47 5175.29 2588.37 5842.56 6736.03 6235.57 5412.31 3623.87 3087.09 7480.41 6934.37 6113.95 4890.5 4050.08 3981.07 5452.42 4901.07 5328.22 6853.85 4020.4 5941.61 3493.47 5782.48 5443.58 4558.46 5805.86 4049.02 4470.4 5311.03 5339.38 6169.11 5615.35 4027.09 6422.84 4502.18 5379.09 4602.85 4962.77 5872.05 4853.02 6259.23 5181.4 5670.2 4711.62 4247.23 4114.24 4268.65 4694.83 5509.42 4354.08 4256.43 5936.36 4520.62 3903.75 4755.47 4485.99 5127.16 5475.8 5314.69 6050.81 5543.46 4249.46 5965.81 3702.37 4750.17 5660.85 2330.66 4177.19 3587.05 6229.37 6718.19 5282.91 4425.84 3797.33 7256.35 4800.69 3555.86 6566.1 6386.78 4996.99 4896.39 6081.14 5480.83 4607.85 4220.46 5128.57 6000.7 5604.21 4968.03 3169.67 3306.14 3361.92 5490.58 4863.79 4702.06 3967.48 3830.46 6213.04 6031.67 4689.15 6138.12 4428.78 5409.66 4537.14 4345.67 4765.72 4642.66 4752.14 5329.59 4888.12 4950.97 5512.16 3197.63 4863.96 5191.08 5887.15 5203.08 5374.07 5163.77 3423.15 4488.85 3731.84 4579.69 3554.48 6496.52 5186.3 5005.85 3436.15 4216.17 4151.76 6484.17 4721.02 4596.75 4933.65 3374.08 4031.78 6098.1 5708.99 5687.85 5346.68 5255.12 5296.29 4611.53 4285.66 4896.11 5172.53 4135.62 5801.99 5534.94 5210.48 7644.38 7552.94 6101.92 5323.3 5088.44 4998.21 4662.56 5166.79 5349.31 2976.22 4649.22 5394.55 5094.52 4946.74 2682.24 5928.32 5229.48 5475.7 4016.18 5526.75 5435.74 4244.99 5327.45 5560.26 6185.89 3997.96 4439.35 3460.94 3990.25 3691.0 3758.07 4752.51 4236.14 4407.87 5733.62 5282.51 4460.92 5945.89 4042.28 4105.55 4340.76 6065.22 4456.39 4221.28 5514.84 3633.79 5421.53 5937.08 6070.3 5233.29 4312.56 4612.06 5204.04 4750.58 6710.88 5395.14 5235.11 6622.11 3685.13 6790.73 4655.16 5251.4 3867.19 5097.69 5857.79 4039.91 5276.7 5036.58 6119.63 5411.02 4752.9 4287.16 5199.44 4062.5 4435.51 4588.7 5683.95 3766.55 6027.62 5010.2 5966.61 5711.11 4938.72 4254.37 3546.71 5768.57 5564.23 5950.04 4231.83 2435.33 6401.43 5020.71 2681.29 5094.48 3872.61 4238.4 4318.48 6132.95 5266.22 4860.33 3685.13 6004.68 4051.34 3627.55 6239.84 4635.6 4256.67 3457.48 3931.07 3405.98 5417.15 3688.16 4681.72 4945.39 5996.33 3950.63 5415.19 4612.62 3619.07 4275.57 4467.04 6385.23 2983.99 2614.4 6363.92 6205.93 4923.24 5830.72 6184.4 3828.81 4373.45 5309.98 4082.57 5255.18 5169.9 3004.16 4767.78 5235.17 4779.5 4421.12 5254.49 6649.96 4303.19 5784.3 3914.2 4256.57 6088.68 4135.08 5620.74 4778.82 6124.08 5467.84 5053.95 5926.11 6667.68 5767.9 5211.38 5089.62 4590.55 4741.26 5920.32 4186.6 4255.85 4732.09 3988.3 6136.49 6543.13 4356.25 5149.72 4216.95 5776.96 5464.25 5486.48 5301.47 4617.55 3645.12 6200.54 5424.88 5415.85 4199.45 8659.64 6599.66 5469.13 4233.8 5765.42 6123.03 4997.83 4893.49 4575.94 5325.44 5021.88 5956.65 4498.25 4188.87 3735.24 6574.95 4074.48 6333.29 4558.47 5731.57 5997.88 5839.71 5576.92 6408.83 3930.79 5226.97 4004.35 3312.06 5180.76 3361.26 6799.4 5278.36 5865.39 4427.28 6079.11 3082.32 6430.39 3658.37 7440.72 3949.6 5703.6 6326.18 5661.62 6631.19 6648.68 4713.74 5626.61 5817.25 5407.78 4084.49 5061.98 6632.99 4537.6 5147.36 4419.61 7177.44 4563.46 6553.94 5726.66 5460.65 5652.0 5463.41 5225.33 4929.75 4435.36 6045.22 4614.3 5134.39 3532.3 5769.98 5442.32 2221.99 4643.56 3580.58 4863.01 5356.79 5657.36 3619.79 5029.47 6306.21 5266.01 2978.76 5253.37 2040.66 7016.27 6515.8 3685.65 5869.4 3701.16 4916.22 6022.7 5895.77 5750.07 4809.67 4757.74 6045.67 4209.49 3946.28 5742.74 3821.94 4244.21 4947.24 3875.05 3540.11 3456.47 5148.58 4652.01 5421.64 7234.66 4055.54 4886.12 4976.12 6098.95 5453.98 3991.42 4388.63 5102.75 4597.29 4200.09 5931.77 5151.21 5398.64 6817.57 4477.04 3614.96 3886.68 5703.74 5662.55 5737.92 5365.24 4360.23 5293.51 4763.96 5754.18 5008.63 3418.99 4480.95 4993.35 4409.63 5521.25 3661.9 5370.85 5949.46 3178.54 4765.02 5376.71 4448.13 5070.29 4807.28 4867.08 2261.36 4266.03 5280.69 4220.03 6923.84 5227.59 5449.46 6179.96 5703.07 6113.54 4662.43 6260.79 3963.76 5528.53 6799.88 3062.43 5990.52 5426.78 2967.38 4159.35 6477.91 4237.98 6439.37 4081.97 5401.99 5580.92 5973.33 5067.46 3583.21 2511.46 4011.37 2775.69 4785.25 6519.43 5876.64 5424.46 4857.84 4908.49 4962.21 4858.44 5884.9 3876.21 4673.35 5689.26 4992.42 5297.19 4940.84 4833.46 5933.7 7248.4 5280.12 5984.81 5439.9 5367.73 4409.27 4640.06 5471.74 3548.39 3673.28 4858.51 4207.54 5625.65 6419.12 6107.89 4817.16 4446.84 5660.55 5148.08 4834.87 5760.22 3672.21 5938.17 4795.43 5097.95 5108.06 3573.73 4693.52 6853.04 4745.43 5831.96 4747.55 3056.7 3755.95 6234.32 4586.19 4446.06 3450.93 4270.74 5132.68 6595.03 4558.15 6218.95 5222.16 5107.23 5136.08 3776.94 5558.68 4010.57 5629.39 2684.03 6157.04 4768.61 5075.55 4522.21 5506.19 6719.94 4950.67 6166.29 5453.6 5409.63 5294.77 4709.05 4630.82 4043.66 4813.08 5860.67 4540.86 3764.1 4835.83 5604.35 6316.56 3091.67 4332.87 6420.81 4715.58 4450.7 5151.52 5369.08 4347.74 5291.9 4009.62 2081.58 6505.78 5461.55 4270.15 6865.76 6449.64 6464.8 4684.44 4749.59 5799.69 3468.42 5571.72 3809.69 4771.13 3208.96 7051.9 4184.23 4351.38 5550.75 6834.41 6226.14 5466.33 4444.97 3000.29 5721.05 3498.16 4514.39 4247.69 4588.99 4321.21 4344.34 3583.49 4928.27 5052.84 3375.28 4366.74 5297.16 4301.61 3184.64 5206.33 5530.49 5653.03 3718.69 4514.79 2216.82 4509.89 6752.75 5269.38 5607.3 2928.82 4222.4 4000.43 3420.08 4568.41 4912.04 4539.07 5464.68 2685.81 5591.76 4585.31 6625.18 5323.91 5097.45 6293.89 2761.07 5737.75 4983.39 5366.52 4690.55 5533.72 5533.42 4802.32 3678.08 4599.38 5246.47 4187.31 6191.29 3240.51 7422.36 5161.01 4298.15 4628.4 5832.37 6051.83 4642.93 4263.16 3973.12 3077.84 6024.75 6109.49 5567.93 5987.42 5332.65 4442.22 6451.33 5413.31 3012.99 6400.08 4743.59 5208.14 3317.83 3763.05 5092.24 5549.49 3101.75 5423.42 4518.04 4766.06 4874.18 5435.19 3298.2 4953.1 5818.95 4093.99 3940.49 4406.05 4680.94 5828.35 5876.72 5236.43 5285.07 4680.14 4608.41 4144.57 4187.94 5980.59 3796.15 4801.8 7216.98 5271.02 4209.31 5718.28 6242.79 5950.45 5713.03 5849.65 4165.21 5134.67 4215.0 4936.96 4481.76 5452.78 5065.26 4304.41 6192.0 4940.28 5885.28 6579.31 3004.34 3022.6 4811.76 4914.45 4698.87 3624.7 4661.03 5160.59 5262.35 4691.91 4475.83 4510.8 5889.35 5010.04 4394.56 4570.98 4275.07 5825.38 4185.61 4047.87 5742.47 3778.02 6552.21 5417.8 5146.37 7132.12 4836.16 5518.57 5151.11 5463.48 5730.33 5545.46 4527.99 4376.7 4543.1 5190.61 8325.01 3764.06 4440.81 5941.9 5434.47 6642.76 5829.22 4497.78 4243.79 5811.18 5433.65 4008.15 4887.76 4669.06 4811.32 4286.49 6184.88 5829.32 4396.25 5551.95 3918.87 2275.45 4901.2 6605.86 5012.5 4383.56 3562.79 7093.13 4516.53 4122.92 3604.14 4452.54 5089.1 2711.19 4028.32 4099.92 4884.59 3858.06 4511.7 4083.79 5263.27 6300.92 5021.77 4173.54 5599.29 6038.68 5046.12 4807.4 7013.17 3805.67 4601.74 6506.86 5088.57 5580.34 3852.6 5775.31 4706.5 4603.5 4647.67 5375.12 4356.36 4892.44 5578.94 7610.49 4286.17 3684.56 5323.55 5375.1 4172.6 5313.12 5351.56 3984.88 4732.09 4320.42 4255.34 5064.79 5480.3 7509.24 4146.81 5896.26 5388.78 6101.13 4573.72 5099.21 4917.99 4367.78 5636.4 4350.12 5227.02 5670.0 4232.16 5300.96 4344.51 5680.94 3781.77 5581.55 5193.01 3474.5 6550.44 3860.83 6348.03 5732.27 4523.39 5278.56 5146.37 6917.62 4013.38 5631.14 4343.78 5263.3 3352.35 4909.65 6523.86 7693.4 4326.48 4437.07 3449.37 5491.9 6405.0 4659.16 5789.55 4909.31 4633.05 5711.62 4990.79 4798.17 5166.79 6479.39 2895.63 4997.91 5079.22 5381.54 5810.77 4714.83 5474.15 7519.2 6355.68 4478.6 3953.55 4304.63 4469.54 4314.56 3928.53 5606.51 5740.65 3834.47 6349.67 6329.53 4590.01 6101.86 4227.41 5993.0 4803.57 5966.42 4110.59 3332.49 5354.66 4214.44 5378.23 4787.97 3746.36 6789.23 3989.7 4777.03 4246.61 6028.09 5452.36 3804.5 6486.37 5498.42 5318.53 3344.57 5220.76 4281.98 7165.9 5344.83 7046.11 3427.63 4863.97 6342.48 5756.75 4587.67 5599.7 4163.74 6969.28 3665.95 5698.96 4095.75 3319.67 3603.51 4298.45 5222.51 4076.59 6609.84 5135.96 3834.43 5658.37 4707.06 6074.94 5491.37 4250.88 3783.54 5268.38 3475.67 4792.39 7038.89 3863.67 4814.12 5067.56 6137.8 2735.53 5116.6 3747.03 2783.85 4356.49 4526.81 3994.07 4219.94 5907.46 4264.91 6740.71 5399.29 5971.22 5533.19 6522.59 6602.43 3568.28 5425.98 5996.66 4405.42 3598.08 2995.67 4599.81 5698.23 7300.58 3608.06 6633.61 5217.95 4867.7 5484.36 4277.24 4063.9 5291.05 5161.1 4619.2 5166.41 5067.56 2596.96 5701.75 4350.15 4139.3 6541.45 4750.49 5078.31 5391.48 4923.43 5131.15 4847.14 3950.27 5116.66 3566.79 5374.67 4981.43 4215.2 4741.28 5069.89 4157.29 6813.72 5327.75 4609.02 4896.65 4638.18 4196.37 6448.66 4453.97 6945.98 5138.2 5783.48 4449.98 4701.5 4504.35 4771.65 4840.44 5093.82 5951.81 3924.14 6918.35 4296.69 6238.32 6804.79 6471.42 5283.8 5369.5 4428.14 5164.1 6464.15 4479.11 4972.17 6685.4 5699.53 4222.77 6332.01 5527.23 4234.18 4805.33 7085.01 5980.95 6193.08 6069.3 5887.01 5168.35 5388.39 5335.47 3728.18 5633.61 5048.19 6799.23 4888.27 4592.15 6487.56 4854.11 4998.22 5417.21 6104.26 5583.61 6063.64 4986.71 7382.3 4022.56 5522.21 3772.3 4855.01 6208.9 4923.57 3340.09 6061.63 2279.05 4829.35 4075.28 8137.11 5484.32 6650.77 4067.96 7104.73 6162.3 3272.75 4264.54 3516.27 7043.44 4263.78 5228.75 4643.9 6047.14 5009.83 5210.38 5717.8 3629.44 5003.78 3299.24 6246.56 4061.6 2603.64 5107.0 5473.72 6212.15 6502.97 4783.07 4946.23 4852.58 6083.28 5211.6 5806.31 3556.79 5456.71 3503.41 7317.04 6412.67 7001.83 5012.97 4036.91 5589.37 5439.49 6639.64 5212.43 5454.12 4834.3 6348.54 4066.57 5642.35 6372.13 5404.01 6016.19 4124.49 3230.13 5714.25 6176.67 5325.96 4850.06 5016.02 7044.29 4920.21 4049.16 3936.95 6153.94 6836.82 3862.77 3858.17 4631.99 4740.98 3185.39 5128.77 5934.82 7122.87 5797.36 4243.26 5001.58 4153.84 5119.86 5084.17 5089.26 4901.44 3776.8 5096.43 6156.21 4653.83 2460.79 6171.71 3628.89 6589.82 4668.88 5027.43 5522.75 5867.64 4438.58 6059.93 5602.53 5073.02 6545.43 3472.91 6760.92 4989.2 4711.04 7144.05 4506.18 4824.12 2970.9 6542.5 4383.47 5971.21 5261.19 3104.96 3831.52 4263.65 6106.43 4807.35 5467.63 5666.95 4642.2 4811.22 3683.86 4918.76 5293.75 4208.41 5826.78 2856.55 4553.68 5361.87 3758.22 4757.2 3205.68 5561.74 61