# vtk DataFile Version 2.0
Time step 81
ASCII
DATASET UNSTRUCTURED_GRID
POINTS 5000 float
219607.0 167051.0 0
227108.0 167477.0 0
232630.0 164695.0 0
231432.0 167870.0 0
236208.0 167390.0 0
242566.0 168759.0 0
273455.0 167160.0 0
279693.0 166276.0 0
194960.0 173236.0 0
200814.0 172031.0 0
207998.0 169959.0 0
213880.0 170920.0 0
223746.0 170468.0 0
219309.0 172581.0 0
228077.0 172128.0 0
233093.0 172120.0 0
238412.0 172332.0 0
243344.0 174369.0 0
249076.0 170280.0 0
255422.0 170170.0 0
259924.0 171809.0 0
263998.0 170160.0 0
269035.0 170675.0 0
265545.0 174176.0 0
274792.0 171524.0 0
279294.0 172435.0 0
284550.0 170683.0 0
290283.0 169892.0 0
286799.0 174275.0 0
293668.0 173594.0 0
298531.0 173053.0 0
303920.0 173817.0 0
191713.0 178446.0 0
198395.0 176312.0 0
201502.0 175800.0 0
201533.0 179716.0 0
205033.0 174775.0 0
206983.0 179597.0 0
210179.0 175240.0 0
212448.0 179680.0 0
215137.0 175831.0 0
224217.0 174897.0 0
219732.0 178480.0 0
228690.0 176468.0 0
233246.0 177328.0 0
238734.0 177777.0 0
248212.0 176455.0 0
252267.0 174844.0 0
253458.0 178904.0 0
256401.0 175048.0 0
258420.0 179544.0 0
261582.0 175911.0 0
268386.0 178314.0 0
272238.0 174725.0 0
273153.0 178766.0 0
277239.0 177304.0 0
283351.0 175476.0 0
281416.0 179204.0 0
290129.0 175068.0 0
287163.0 178243.0 0
293280.0 177999.0 0
298443.0 178739.0 0
304027.0 179173.0 0
191585.0 184323.0 0
196304.0 180263.0 0
216267.0 183305.0 0
221779.0 182293.0 0
225292.0 180065.0 0
227616.0 184621.0 0
230198.0 180827.0 0
231811.0 184348.0 0
235112.0 181550.0 0
244073.0 179668.0 0
239886.0 183433.0 0
249114.0 181393.0 0
254883.0 183786.0 0
263519.0 179912.0 0
261037.0 183961.0 0
266891.0 184369.0 0
271569.0 182114.0 0
274360.0 183790.0 0
278001.0 182397.0 0
284583.0 183151.0 0
290525.0 182579.0 0
295293.0 182407.0 0
299484.0 184034.0 0
304308.0 184160.0 0
309701.0 183007.0 0
189398.0 188756.0 0
197145.0 185344.0 0
203155.0 185553.0 0
209959.0 184936.0 0
214679.0 188664.0 0
221221.0 186551.0 0
225752.0 188673.0 0
230649.0 188890.0 0
235410.0 185788.0 0
243334.0 188203.0 0
240228.0 187994.0 0
245167.0 184722.0 0
246477.0 188986.0 0
249928.0 186227.0 0
254040.0 188515.0 0
257837.0 186828.0 0
262983.0 189236.0 0
271953.0 185975.0 0
276118.0 186981.0 0
280573.0 186374.0 0
286003.0 189558.0 0
295407.0 186446.0 0
291322.0 187501.0 0
298965.0 188586.0 0
302340.0 187438.0 0
307270.0 189741.0 0
193298.0 191354.0 0
190402.0 195187.0 0
198944.0 190573.0 0
204492.0 191387.0 0
209885.0 191051.0 0
214025.0 193788.0 0
218884.0 191816.0 0
224648.0 192575.0 0
228363.0 192700.0 0
236252.0 191002.0 0
242072.0 192132.0 0
246670.0 192740.0 0
250062.0 190758.0 0
253707.0 193427.0 0
258029.0 190999.0 0
264312.0 194966.0 0
269424.0 190930.0 0
275549.0 191661.0 0
273016.0 194700.0 0
280235.0 190728.0 0
282650.0 193613.0 0
291268.0 191433.0 0
286393.0 194410.0 0
289001.0 193592.0 0
295433.0 190973.0 0
297875.0 194570.0 0
301531.0 192132.0 0
305223.0 194946.0 0
309099.0 195006.0 0
313212.0 193916.0 0
186443.0 196278.0 0
189468.0 199637.0 0
194908.0 197929.0 0
200959.0 196175.0 0
207529.0 196660.0 0
213268.0 199034.0 0
217019.0 196437.0 0
221633.0 196348.0 0
226965.0 196375.0 0
231972.0 195105.0 0
237580.0 197119.0 0
244657.0 196730.0 0
249327.0 195654.0 0
253204.0 198543.0 0
258543.0 196303.0 0
269892.0 196761.0 0
274700.0 198944.0 0
279012.0 195328.0 0
279810.0 200037.0 0
284011.0 197575.0 0
288795.0 196912.0 0
293292.0 195600.0 0
297194.0 198798.0 0
301547.0 196936.0 0
307142.0 199213.0 0
312108.0 198403.0 0
184943.0 201246.0 0
188022.0 204209.0 0
192944.0 203800.0 0
198802.0 201565.0 0
203404.0 201095.0 0
202690.0 205352.0 0
208717.0 203000.0 0
218255.0 200496.0 0
214316.0 204403.0 0
224288.0 201666.0 0
228797.0 204274.0 0
230310.0 200000.0 0
232968.0 203938.0 0
237385.0 202593.0 0
241732.0 200560.0 0
248186.0 200260.0 0
245033.0 202542.0 0
252230.0 204173.0 0
257648.0 202025.0 0
261758.0 199817.0 0
262590.0 204440.0 0
266363.0 200257.0 0
270682.0 201591.0 0
273941.0 204721.0 0
278725.0 204227.0 0
283592.0 202615.0 0
287784.0 200921.0 0
292666.0 200913.0 0
297322.0 204086.0 0
302393.0 201829.0 0
311055.0 202398.0 0
307111.0 204647.0 0
314471.0 203623.0 0
185463.0 207446.0 0
189034.0 207929.0 0
198099.0 206541.0 0
192815.0 208762.0 0
202681.0 210000.0 0
205805.0 206680.0 0
206579.0 209290.0 0
210526.0 208598.0 0
216072.0 209876.0 0
219532.0 205448.0 0
225625.0 207216.0 0
230374.0 208137.0 0
236166.0 208024.0 0
241783.0 205599.0 0
246947.0 205879.0 0
250557.0 209400.0 0
257551.0 208716.0 0
263974.0 209415.0 0
268318.0 206053.0 0
272513.0 209682.0 0
277224.0 208759.0 0
282429.0 207469.0 0
287629.0 205770.0 0
292424.0 205480.0 0
296381.0 209859.0 0
302393.0 207226.0 0
311647.0 206464.0 0
308996.0 209988.0 0
315285.0 206792.0 0
313492.0 210393.0 0
186585.0 211428.0 0
187134.0 215498.0 0
191269.0 213580.0 0
196106.0 211269.0 0
195571.0 215588.0 0
199638.0 214002.0 0
207486.0 212412.0 0
212223.0 214164.0 0
221666.0 210255.0 0
223992.0 213952.0 0
226926.0 211118.0 0
232481.0 212245.0 0
237366.0 213321.0 0
241107.0 210564.0 0
243504.0 215105.0 0
245722.0 210263.0 0
248780.0 213849.0 0
253329.0 212927.0 0
262366.0 213359.0 0
268301.0 212058.0 0
275095.0 214170.0 0
280645.0 212673.0 0
285988.0 211515.0 0
290970.0 209990.0 0
289616.0 214349.0 0
293429.0 213941.0 0
300605.0 211583.0 0
297883.0 215601.0 0
304996.0 213980.0 0
188100.0 219715.0 0
192476.0 218103.0 0
196022.0 219865.0 0
200617.0 218850.0 0
205609.0 216233.0 0
209812.0 218757.0 0
218652.0 215373.0 0
214985.0 219669.0 0
223657.0 218596.0 0
228327.0 215396.0 0
233730.0 217424.0 0
238933.0 217069.0 0
237416.0 219944.0 0
241810.0 219661.0 0
247649.0 218132.0 0
252372.0 217550.0 0
257834.0 215503.0 0
265686.0 216001.0 0
262015.0 218935.0 0
270496.0 216628.0 0
274537.0 219269.0 0
279526.0 217649.0 0
285552.0 217071.0 0
291909.0 218810.0 0
296982.0 220524.0 0
302107.0 219429.0 0
306973.0 218880.0 0
311664.0 215871.0 0
317822.0 217222.0 0
187141.0 225292.0 0
192373.0 222798.0 0
200304.0 224505.0 0
205242.0 220879.0 0
208888.0 222542.0 0
212281.0 223395.0 0
216287.0 225378.0 0
219649.0 221986.0 0
228785.0 220662.0 0
224324.0 223736.0 0
234038.0 222956.0 0
239001.0 223046.0 0
242969.0 223122.0 0
245589.0 220971.0 0
250174.0 221790.0 0
256754.0 221561.0 0
262213.0 223384.0 0
267061.0 220830.0 0
269976.0 225154.0 0
271610.0 221723.0 0
274417.0 224852.0 0
278377.0 222317.0 0
282875.0 221281.0 0
281968.0 224630.0 0
287386.0 222380.0 0
293647.0 225093.0 0
299919.0 224818.0 0
306625.0 224469.0 0
311955.0 221709.0 0
190379.0 229880.0 0
195076.0 227270.0 0
199269.0 229690.0 0
206260.0 226431.0 0
211979.0 228070.0 0
217143.0 230630.0 0
220617.0 226662.0 0
225027.0 228865.0 0
229229.0 225787.0 0
233465.0 227343.0 0
237273.0 226869.0 0
241541.0 226733.0 0
244196.0 229945.0 0
246734.0 225411.0 0
248486.0 229635.0 0
252658.0 226520.0 0
258481.0 226787.0 0
263039.0 228080.0 0
265958.0 225350.0 0
267961.0 229384.0 0
272109.0 228244.0 0
275924.0 229378.0 0
278994.0 226634.0 0
285137.0 227076.0 0
288997.0 225796.0 0
289933.0 229550.0 0
297369.0 229528.0 0
302519.0 230118.0 0
307679.0 230487.0 0
312203.0 227493.0 0
189646.0 235309.0 0
194944.0 232986.0 0
200630.0 233330.0 0
198422.0 235354.0 0
203464.0 230715.0 0
204402.0 234965.0 0
208026.0 231668.0 0
212358.0 232593.0 0
218894.0 235628.0 0
221868.0 232496.0 0
226784.0 233813.0 0
230958.0 231176.0 0
235528.0 230395.0 0
239522.0 230791.0 0
235859.0 234475.0 0
242691.0 233600.0 0
239690.0 234495.0 0
246732.0 233305.0 0
251836.0 232440.0 0
256009.0 230402.0 0
259799.0 230995.0 0
256204.0 234030.0 0
259931.0 234614.0 0
263691.0 232171.0 0
267749.0 233914.0 0
272484.0 232632.0 0
281231.0 230158.0 0
278082.0 232444.0 0
281450.0 234870.0 0
285445.0 231744.0 0
286768.0 235792.0 0
289632.0 233449.0 0
294151.0 233154.0 0
299457.0 234265.0 0
305147.0 235696.0 0
311881.0 233837.0 0
191195.0 240990.0 0
193056.0 237967.0 0
196311.0 237898.0 0
200443.0 238340.0 0
205219.0 239542.0 0
209392.0 236349.0 0
212138.0 240046.0 0
214515.0 236161.0 0
220335.0 239734.0 0
223281.0 236752.0 0
227960.0 238199.0 0
231672.0 235917.0 0
231528.0 239918.0 0
235219.0 239061.0 0
239585.0 238020.0 0
244242.0 237066.0 0
249045.0 236514.0 0
253382.0 236656.0 0
251297.0 239907.0 0
254819.0 239866.0 0
257158.0 237708.0 0
260372.0 238648.0 0
263542.0 236257.0 0
267256.0 237924.0 0
271524.0 237577.0 0
274877.0 239959.0 0
276399.0 235762.0 0
279211.0 239344.0 0
284099.0 239261.0 0
291248.0 237053.0 0
296467.0 238437.0 0
300518.0 238340.0 0
195711.0 242426.0 0
198264.0 246578.0 0
200604.0 242740.0 0
205648.0 243739.0 0
208933.0 241392.0 0
209769.0 244620.0 0
216318.0 240020.0 0
214355.0 244516.0 0
218317.0 242926.0 0
221762.0 244013.0 0
224914.0 241270.0 0
229148.0 242611.0 0
233363.0 243451.0 0
238178.0 242888.0 0
242625.0 241253.0 0
242029.0 244839.0 0
247076.0 240532.0 0
250002.0 243466.0 0
245786.0 244698.0 0
253485.0 242663.0 0
258090.0 242888.0 0
263765.0 241408.0 0
268599.0 241314.0 0
266987.0 244734.0 0
271702.0 243517.0 0
276910.0 243608.0 0
281785.0 243877.0 0
286308.0 242901.0 0
288546.0 240158.0 0
289872.0 244157.0 0
292555.0 241155.0 0
295707.0 244588.0 0
300417.0 241975.0 0
304834.0 247331.0 0
306401.0 242048.0 0
201047.0 249749.0 0
202668.0 246252.0 0
207073.0 247315.0 0
205348.0 250298.0 0
211532.0 248285.0 0
222487.0 247647.0 0
218615.0 246758.0 0
226316.0 246095.0 0
230120.0 245684.0 0
232518.0 247329.0 0
229467.0 250143.0 0
235995.0 247142.0 0
239882.0 247451.0 0
243647.0 247933.0 0
249243.0 246951.0 0
246612.0 248536.0 0
253807.0 246892.0 0
258278.0 248573.0 0
262257.0 246021.0 0
265509.0 248205.0 0
269407.0 248212.0 0
274308.0 247382.0 0
278672.0 247495.0 0
282341.0 248008.0 0
286155.0 246646.0 0
284238.0 249980.0 0
287728.0 250357.0 0
291387.0 247578.0 0
295317.0 249370.0 0
300390.0 246477.0 0
299154.0 249578.0 0
203110.0 253933.0 0
208013.0 254238.0 0
208942.0 250576.0 0
212075.0 252213.0 0
211741.0 256013.0 0
215940.0 250348.0 0
220405.0 250605.0 0
220146.0 254638.0 0
224210.0 255151.0 0
224681.0 250992.0 0
228064.0 254678.0 0
[...]
POINT_DATA 5000
SCALARS Radius float 1
LOOKUP_TABLE default
5258.36 5061.3 3163.97 3642.12 5812.43 5906.14 5580.89 6810.52 5415.48 5120.0 6182.6 5492.18 3951.75 5867.73 4499.64 5542.27 5122.66 5484.19 7513.1 5254.28 4402.52 4436.4 5733.48 4182.53 3588.44 5645.7 5553.16 6110.27 2938.66 4008.92 5840.26 5073.35 4834.9 3863.18 2356.98 5484.83 4998.37 5538.89 5351.6 4730.36 4715.55 5013.56 6059.59 4375.68 5054.98 6030.06 5170.02 3557.27 4927.31 4688.68 5185.34 4517.56 5903.42 4672.91 3761.32 5176.86 4366.19 4118.05 3672.51 5065.13 4940.78 5561.06 5670.04 6044.04 5085.53 5926.61 2720.68 5701.86 4955.55 4238.81 3563.63 4468.59 5325.02 5885.03 5200.76 4862.64 4432.58 5205.43 6684.56 3955.56 2635.86 5292.64 6166.5 5936.02 3615.22 5305.17 4380.59 6716.79 3850.77 5325.36 6759.9 7021.47 5416.38 6051.14 4195.44 5836.15 4345.55 2837.58 3653.41 5246.2 3871.88 5017.13 4827.23 3673.74 6116.18 3968.64 4688.67 4385.06 7184.19 4231.61 4290.3 3942.53 3379.84 7613.27 5546.39 4094.62 5945.65 5418.62 5493.32 4601.27 5740.68 4277.89 3261.21 6704.06 5600.93 3856.01 4390.66 5279.39 4911.47 5803.39 7447.37 4924.6 3255.82 4733.32 2812.98 3867.67 2899.43 2924.37 4861.08 4003.05 4827.82 3607.45 3589.27 4951.03 4133.88 4927.02 6483.19 6230.49 7054.71 5489.43 3641.64 5747.75 4796.33 5539.32 6496.85 5541.59 4124.71 5728.85 6337.56 4381.97 6257.19 5242.73 4737.14 5603.15 4065.69 5399.73 4712.33 4805.87 5759.91 4333.2 4665.12 3936.02 5980.74 4174.52 5109.54 3829.13 6458.82 5054.25 5527.54 7325.81 4055.8 5360.19 4794.96 4874.39 4839.34 5083.08 2980.99 6834.49 5525.39 3998.5 5938.34 5863.59 4024.3 5555.28 4686.65 4695.45 4660.72 5390.22 6038.78 5227.21 3997.1 5123.52 3260.67 3383.4 3856.1 5816.2 4044.71 5693.81 3091.3 2540.31 5789.98 6138.47 5573.7 4727.62 5206.78 6425.26 6186.19 4840.01 5611.2 7933.0 5173.87 6394.38 5118.27 5169.36 5834.74 5556.96 3888.21 6052.7 5697.78 4295.38 4667.36 3038.33 4392.68 4780.03 3554.9 5495.39 4487.31 4002.16 4778.34 4138.16 6029.66 5697.4 4270.95 4005.44 5280.17 5028.96 5143.58 6362.12 4484.76 5152.36 4220.65 4455.12 5380.13 5711.87 5932.23 5581.75 5788.23 3666.57 3798.62 3921.18 5891.05 6902.81 5252.48 3996.0 4015.92 5708.81 4684.5 5120.49 6302.8 5409.61 6038.2 5555.88 6732.43 3866.16 3183.98 4524.28 4511.82 5826.64 6820.42 4894.16 4816.2 4896.52 4941.22 5791.61 6392.01 6644.76 4254.17 5615.42 4091.31 7199.21 5529.52 6124.89 5542.21 5924.89 5043.05 3486.22 4414.54 5201.36 5262.61 5713.22 5094.81 5861.71 5017.78 3794.63 3778.1 4727.24 6959.81 4829.35 6321.41 4751.02 3372.79 5184.56 5282.64 4479.66 3369.13 5308.1 6730.19 6372.62 7565.34 4523.7 5337.48 5481.78 4937.14 6894.71 5551.36 6038.14 4306.53 6135.57 5972.06 4312.67 4359.04 5015.69 4947.52 6175.81 4520.1 6677.09 5813.4 5201.67 4089.76 5526.55 3192.41 4987.87 4715.72 5367.2 3043.85 5461.13 4907.89 5629.19 4937.02 5255.32 5637.59 6084.86 3307.12 3115.91 4467.94 5478.92 4933.21 4850.81 4723.12 5024.9 5659.17 5998.38 4270.24 4989.15 5423.8 4164.13 3417.33 4642.34 5874.89 4305.57 3791.79 4293.03 4424.7 4754.05 4951.47 6084.93 4669.66 3315.57 5607.24 4808.52 4726.76 3599.45 5655.21 5091.39 6756.95 6037.08 4049.23 3103.0 3586.91 4948.92 5810.84 5094.44 4655.49 5375.47 4809.42 4717.05 5287.2 4562.29 4234.94 5013.13 5080.66 4926.42 5153.74 4165.81 4528.09 3556.85 4389.21 4128.98 4925.44 5246.61 5215.15 5046.33 4764.96 5053.92 5839.13 5090.24 5923.5 2240.39 5601.05 4382.74 4516.43 4749.8 3748.24 4230.54 4566.18 6163.38 3459.9 4964.09 5856.11 4109.88 4980.85 5714.58 5110.45 3329.99 5248.77 4083.97 5208.32 3895.51 6291.51 6246.22 4307.28 4100.38 5804.71 5020.12 6352.26 3735.44 4073.93 4786.6 4645.41 5740.84 5096.78 4727.24 6324.23 4651.28 4384.42 4493.48 4362.19 5082.6 4093.08 4997.27 5543.27 3327.49 3960.8 5992.26 4923.9 4973.78 3947.47 4607.02 3296.27 6673.96 5174.89 5882.89 4188.32 5538.93 5727.3 4242.52 3847.38 4907.06 3057.03 5163.9 4433.59 4973.83 4612.68 3320.52 6355.42 5690.56 3693.63 3937.74 5478.47 6061.47 4449.22 5806.08 4853.39 5628.24 5365.89 5070.39 4511.54 4613.31 5196.0 5091.68 4204.84 6119.09 4713.25 5069.25 6243.0 5441.96 4288.3 3435.9 5370.52 5774.81 4739.42 3697.96 4899.11 4723.48 4278.07 4745.45 5356.51 3818.59 5495.68 6043.3 5530.87 3912.37 4310.18 4929.8 4151.94 5244.78 5762.84 6142.37 5119.37 3982.23 5243.29 3130.65 5004.67 5409.33 4178.15 7531.29 5935.03 5048.89 3991.03 3161.47 4652.29 4495.87 5027.98 5344.77 5097.87 5281.28 4863.72 2631.9 4087.15 4143.08 5489.34 5952.75 6445.94 4281.49 4129.43 4320.28 5927.43 4685.34 5492.26 4220.88 6640.13 5351.39 4336.42 3402.32 4583.31 7589.94 4466.03 4898.94 4733.04 5788.66 4755.47 6390.78 6826.57 3746.31 4788.87 5346.27 7267.18 4758.21 5002.48 5708.14 4262.82 5537.72 6342.25 6327.9 6519.71 3092.35 3629.96 5210.03 4306.11 6022.17 5903.66 5419.37 5985.29 4528.49 4247.23 4268.65 4694.83 4354.08 4485.99 3903.75 4520.62 5475.8 7435.25 5498.32 5543.46 6475.1 6255.18 2691.29 7500.97 3920.42 6332.36 5542.14 4218.06 4931.53 3843.58 6082.81 5449.18 5367.52 4714.54 5030.91 3320.11 5507.24 4503.89 6851.54 5313.66 5935.47 5275.32 5512.23 4649.22 5509.42 5475.7 5936.36 5314.69 6050.81 6022.72 4643.31 5527.33 4969.21 6256.02 4277.88 6623.85 8332.24 7134.64 6691.39 4602.25 5293.9 3191.99 5110.37 4048.37 5664.98 4322.15 4659.59 5101.59 3813.22 5570.3 2651.49 5234.29 4711.62 4114.24 5349.31 5394.55 2976.22 4256.43 2682.24 5229.48 5415.19 4016.18 5127.16 5435.74 4249.46 4244.99 5560.26 5965.81 6917.52 2330.66 4177.19 5402.21 4668.71 3691.0 2845.98 7228.46 5102.36 5228.18 5787.31 6122.55 5480.13 6142.94 4931.38 4736.58 4548.16 3485.26 3240.09 4556.36 5025.39 3688.8 4377.07 3695.36 5893.5 3848.93 6020.48 5200.05 4645.58 5670.2 4091.8 5094.52 5166.79 5928.32 3950.63 5526.75 4275.57 3619.07 5327.45 6185.89 3702.37 3990.25 4752.51 4880.14 5320.92 3948.23 6362.14 6719.88 4342.9 5978.82 5978.9 2739.94 4270.53 4194.5 4329.05 4792.73 3369.23 5264.06 4515.71 5358.59 4547.19 3817.13 5023.15 3963.86 3844.9 5076.35 5273.35 5181.4 6259.23 4662.56 5417.15 3457.48 4946.74 5996.33 4612.62 6385.23 4467.04 2983.99 3997.96 5660.85 4750.17 3460.94 6184.4 3758.07 3587.05 4373.45 4989.09 4982.31 5269.18 4406.1 6155.31 6308.71 4790.08 4187.56 5082.47 5513.6 5138.31 4901.41 4551.24 6202.55 6387.01 7111.16 4871.44 6375.99 4853.02 5088.44 4998.21 3405.98 3931.07 7440.72 3688.16 4681.72 3949.6 6631.19 5661.62 5817.25 5626.61 2614.4 4439.35 6363.92 6205.93 6229.37 3828.81 5309.98 5289.52 5034.59 5314.85 5065.11 4553.56 5911.67 4223.33 5069.84 3629.62 5329.64 4840.84 4997.27 3708.04 3610.4 4621.75 4581.13 6338.89 6480.17 5584.06 4564.34 3838.56 6248.81 5872.05 6079.11 4256.67 4945.39 5376.71 4867.08 5407.78 6648.68 6632.99 5061.98 4923.24 5830.72 7177.44 4307.48 6718.19 4305.43 5450.44 3848.54 4942.77 3927.99 5266.5 5868.82 3323.28 4051.44 4301.06 5344.25 4501.51 6013.14 4602.86 3856.59 2765.2 4219.07 5372.61 5413.79 3686.21 6445.22 4962.77 4427.28 5323.3 3082.32 6430.39 4765.02 3658.37 4448.13 5703.6 5070.29 6326.18 4713.74 4266.03 4537.6 6179.96 4419.61 6260.79 4407.87 4082.57 4236.14 5080.18 5941.4 4454.63 4263.33 4716.19 4050.9 6695.82 5135.69 5514.76 5344.0 3456.98 5191.63 5379.87 5925.6 5572.95 3979.82 6723.16 4746.52 5402.24 4948.5 5013.42 5651.07 5210.48 6101.92 3627.55 4635.6 6239.84 5370.85 3178.54 5629.39 6157.04 2684.03 4807.28 4768.61 2261.36 4084.49 5075.55 4220.03 5703.07 5449.46 5147.36 4662.43 4563.46 3963.76 5169.9 5733.62 5282.91 6510.17 4871.96 4066.38 4523.88 6049.55 5709.62 6405.76 4290.14 4593.7 5987.17 4043.57 5586.81 5006.58 5130.91 3868.18 3689.45 4527.02 5383.07 7552.94 4519.22 4409.63 5865.39 5521.25 5949.46 3661.9 3776.94 5246.47 4010.57 4522.21 5280.69 6923.84 6166.29 6113.54 4043.66 5294.77 6553.94 4425.84 5282.51 3797.33 5331.02 7256.35 5742.65 5592.32 4241.89 5835.78 5054.74 4877.67 4020.32 6045.46 4763.45 4138.42 4481.53 3824.16 5011.31 5330.45 5077.33 3948.17 4531.14 4959.34 4247.15 4602.85 7644.38 4051.34 6004.68 5278.36 5136.08 5107.23 4187.31 5558.68 3240.51 5506.19 6191.29 6719.94 5161.01 4950.67 5453.6 4709.05 3077.84 5255.18 5528.53 3004.16 4460.92 5460.65 5945.89 4105.55 4800.69 3279.1 5912.61 4978.31 4099.77 4981.9 3498.2 4245.72 5941.72 3815.26 4150.99 4292.06 5681.38 6318.18 5045.38 5350.88 5125.78 4790.78 5452.83 4591.87 6552.22 6422.84 5379.09 5534.94 5180.76 6799.4 6218.95 5222.16 5533.42 4802.32 4599.38 5730.33 7422.36 4527.99 4628.4 5409.63 5227.59 6051.83 4630.82 4813.08 5726.66 6799.88 4767.78 3062.43 5426.78 4042.28 4863.23 4402.67 4403.98 5381.16 4948.98 5794.24 4537.32 6562.18 4216.92 4478.15 5147.67 3771.48 5577.04 4986.77 6034.41 5178.99 4027.09 5801.99 4502.18 3312.06 3361.26 4993.35 4690.55 5533.72 3678.08 5146.37 5518.57 5463.48 4543.1 5545.46 4376.7 5190.61 5832.37 4298.15 3973.12 4642.93 4263.16 6024.75 5860.67 4540.86 5990.52 5235.17 3555.86 6566.1 4560.84 6386.78 5227.52 4414.48 6086.96 5163.02 4127.74 4541.21 4704.72 5908.1 5445.87 5198.77 4107.03 5423.0 5643.58 5215.05 5137.34 5197.52 5344.43 5615.35 6169.11 4135.62 5266.22 4860.33 4983.39 3685.13 3418.99 5366.52 4480.95 7132.12 5417.8 4836.16 5680.94 5581.55 6550.44 3764.06 5941.9 6642.76 5987.42 6109.49 3764.1 4340.76 5652.0 4421.12 4435.36 6065.22 5565.13 4996.99 3066.13 6193.35 2476.04 4302.5 6048.7 4571.7 4177.94 4850.01 4138.46 2775.04 3975.31 5198.29 4044.45 4373.47 6070.58 5490.43 4896.11 5022.28 5172.53 4318.48 6132.95 5226.97 5754.18 4558.15 5132.68 6552.21 5227.02 4232.16 5151.11 5300.96 5670.0 5193.01 8325.01 4440.81 4523.39 5829.22 5567.93 2967.38 4835.83 5811.18 5463.41 4929.75 5254.49 6045.22 4470.61 4221.28 4456.39 4656.78 4156.38 4631.83 4092.24 6009.88 4344.58 5896.46 3970.25 4271.69 6035.6 4285.32 3627.82 5262.19 6449.45 4285.66 5339.38 5008.63 4004.35 4763.96 3872.61 4270.74 3450.93 6293.89 5737.75 6595.03 4350.12 3603.51 3834.43 6609.84 4344.51 4707.06 5491.37 3781.77 3474.5 6348.03 3860.83 4792.39 5732.27 5434.47 4497.78 4243.79 5332.65 4779.5 4237.98 4159.35 6439.37 6649.96 4896.39 3701.27 4729.43 5105.16 5991.09 5126.91 6006.16 4164.68 4742.68 4810.12 6898.19 3821.72 5526.14 4244.9 4470.4 4986.51 5311.03 3930.79 5293.51 4238.4 5365.24 5097.45 4446.06 4047.87 5742.47 3778.02 4095.75 2761.07 4367.78 5135.96 5222.51 6074.94 5658.37 4250.88 3475.67 5278.56 7038.89 5146.37 6917.62 5433.65 6451.33 5604.35 5225.33 3091.67 4614.3 4384.88 4332.87 5233.78 6887.27 4562.74 6008.49 4806.34 4678.38 5050.65 5634.83 5316.75 3633.87 3929.19 7099.43 6396.74 4516.28 5315.4 4611.53 6048.86 6894.26 5255.12 6625.18 4573.72 4185.61 4917.99 5099.21 3319.67 4076.59 4298.45 5636.4 4972.17 5164.1 4428.14 5699.53 3783.54 5527.23 4222.77 5268.38 3863.67 4805.33 5631.14 6137.8 4814.12 5067.56 4442.22 4887.76 5413.31 6477.91 4303.19 3633.79 4081.97 5514.84 6081.14 5421.53 3942.07 5480.83 5448.61 4827.33 5495.84 6268.1 5347.48 5922.5 5776.37 5486.68 5100.25 5094.48 5678.96 2681.29 6408.83 5576.92 5323.91 4586.19 4296.69 6969.28 4163.74 5283.8 6471.42 6464.15 6016.19 6685.4 4850.06 6332.01 7044.29 5980.95 4013.38 4343.78 3012.99 5263.3 6316.56 5401.99 6420.81 3914.2 5653.9 5134.39 5776.57 7144.24 5133.97 6600.94 7443.72 5022.8 4502.5 4374.35 4011.77 4527.08 2965.79 4287.63 5805.86 5346.68 4049.02 5296.29 5997.88 6234.32 4360.23 4585.31 4570.98 4275.07 5698.96 3665.95 6238.32 6372.13 4124.49 5369.5 4479.11 5714.25 3230.13 5325.96 5016.02 7085.01 4581.37 4234.18 3352.35 6193.08 4909.65 2735.53 5116.6 4008.15 4811.32 4669.06 4286.49 6400.08 5580.92 4256.57 4607.85 4220.46 3600.43 5683.26 5371.02 4906.82 3784.5 3937.08 5499.11 5113.21 5252.34 4410.55 3921.08 4190.31 5683.61 4558.46 5020.71 5839.71 5737.92 3755.95 5889.35 5010.04 5388.78 5825.38 5599.7 6804.79 5642.35 5535.91 5404.01 6176.67 5955.86 4533.37 5412.24 5887.38 4920.21 4049.16 3936.95 6069.3 6153.94 5887.01 6523.86 7693.4 4715.58 4743.59 3317.83 5784.3 4287.53 3532.3 5598.74 6088.68 5131.24 6070.3 5513.57 6133.92 4862.21 5782.6 6261.42 5965.78 6125.34 4274.61 5083.41 7055.42 5443.58 3836.45 5731.57 5662.55 5464.68 3056.7 2685.81 5591.76 5896.26 4394.56 6101.13 4587.67 5951.81 6918.35 4834.3 4066.57 6357.47 4793.65 4891.38 4532.89 2949.12 6040.74 2779.99 4848.46 5851.61 6942.34 3658.05 3862.77 6836.82 3858.17 5168.35 4631.99 3747.03 2783.85 6184.88 4326.48 5208.14 5829.32 4450.7 5769.98 5973.33 5937.08 2221.99 4643.56 4788.58 6155.1 7055.53 5013.67 5260.34 3719.84 4178.4 5669.65 5729.23 5011.84 5253.55 7034.11 5820.48 2586.12 5433.8 5564.02 5975.63 6444.77 6314.07 6248.6 5687.85 6401.43 5703.74 4747.55 4539.07 4475.83 4510.8 7509.24 5093.82 5756.75 3924.14 6318.23 6348.54 5156.76 6101.57 5948.71 3856.53 5460.89 5742.09 5260.85 2884.65 4393.16 3311.29 5807.46 5478.11 5030.15 3477.1 5388.39 4740.98 4356.49 3728.18 4437.07 5335.47 3449.37 4396.25 4526.81 3763.05 5151.52 3583.21 5092.24 4347.74 5442.32 4135.08 5612.21 5046.21 5894.61 5687.83 5196.67 5206.48 4709.35 5934.22 6586.45 5876.71 3780.23 5826.04 3471.03 4004.04 4359.62 5690.26 5607.14 5062.71 6057.22 6946.21 4156.2 4289.17 4497.59 4470.98 4512.11 5759.46 5708.99 6333.29 4558.47 5831.96 5064.79 5480.3 4146.81 4840.44 3427.63 6639.64 5212.43 5454.12 4058.87 4206.98 5932.07 5174.75 5844.72 4984.46 4054.22 3992.97 5393.65 7228.94 4648.21 4595.12 3110.13 4549.69 5526.31 6423.81 3644.78 4078.93 6192.77 3185.39 5128.77 3994.07 5491.9 6405.0 5551.95 3918.87 5291.9 5067.46 4518.04 5128.57 4009.62 4929.14 4863.01 6000.7 5945.08 5004.23 6496.67 5139.5 6442.69 5474.8 6320.71 5226.0 5624.49 5339.78 4750.78 4373.3 5029.78 3095.48 3745.84 4730.41 3923.03 4643.85 5696.88 5082.74 5411.85 3999.94 6915.83 4027.46 4844.57 6072.45 5511.88 3901.8 5941.61 4933.65 6098.1 5950.04 4231.83 2435.33 4074.48 4477.04 3614.96 3886.68 4691.91 5344.83 7046.11 4863.97 6342.48 5439.49 5216.26 4887.52 3687.65 5478.95 6571.31 3851.85 4392.65 5048.55 4024.31 4147.31 4955.16 5989.05 5950.88 4441.22 5853.89 4149.55 4961.99 4386.8 6551.93 6484.43 4625.67 3485.54 4312.15 4583.52 5934.82 4501.78 5633.61 4219.94 5907.46 4659.16 4264.91 5369.08 5399.29 5549.49 5620.74 3101.75 4766.06 3580.58 5356.79 5233.29 3979.54 5604.21 7493.3 4968.03 4814.55 5304.13 3527.05 4648.04 5833.06 6262.72 6607.87 3664.11 4166.08 3365.82 5762.59 4861.06 3979.26 5960.66 6608.73 5188.81 5654.31 6062.05 3999.48 6939.12 4203.26 4735.33 4413.85 6853.85 6171.13 4020.4 5092.37 4864.22 2395.5 3374.08 3497.9 5782.48 5564.23 4188.87 4031.78 3735.24 5398.64 6574.95 6817.57 6853.04 4745.43 3420.08 4320.42 4255.34 4912.04 7165.9 4701.5 4449.98 4771.65 4036.91 5589.37 5110.11 6379.14 3634.5 6631.28 6413.15 6103.11 6459.51 4904.51 3288.01 2202.77 5751.15 6201.86 5474.01 7554.58 3380.69 4140.4 4725.01 4458.64 5966.75 3657.69 6418.11 7122.87 5048.19 4243.26 3572.94 6799.23 4888.27 6740.71 6487.56 5789.55 5423.42 4874.18 2081.58 6605.86 4011.37 2511.46 2775.69 4312.56 4778.82 5657.36 3169.67 5204.04 4612.06 5467.84 3361.92 5944.09 3306.14 5490.58 5698.77 4863.79 6515.84 4702.06 4163.5 5374.51 6481.79 4123.6 5320.28 4796.58 4298.67 5750.71 5873.69 4962.09 4472.17 5470.77 4831.47 5516.95 5563.79 4151.76 4406.4 3905.51 4721.02 3493.47 4596.75 3546.71 4254.37 4498.25 5768.57 5151.21 5108.06 4222.4 4000.43 4693.52 3573.73 4661.03 4568.41 5160.59 3624.7 5262.35 4281.98 5783.48 4504.35 5012.97 4891.67 6818.91 3429.57 3503.65 5569.2 4027.63 5350.88 5420.67 5305.59 5416.45 6114.89 4330.58 5754.6 6870.97 5351.86 6056.87 5307.35 4342.18 3639.44 5446.4 5725.37 5510.9 4883.63 3492.83 4505.28 6015.02 4922.49 4153.84 5797.36 5001.58 5119.86 4820.17 4592.15 5084.17 4854.11 4901.2 4633.05 2275.45 6505.78 6522.59 6124.08 5012.5 6519.43 5029.47 3619.79 5876.64 4750.58 5053.95 5395.14 3464.83 6710.88 3967.48 2477.07 5117.47 4143.78 4923.41 4538.95 5724.64 4970.88 7092.87 4763.66 5224.12 4850.14 6739.08 3637.61 4569.12 6098.14 3493.7 4938.74 6470.3 6222.42 4200.03 5313.22 3474.39 5328.22 3436.15 4216.17 5711.11 4575.94 6484.17 4938.72 5021.88 4597.29 5956.65 4200.09 5931.77 5097.95 5313.12 4914.45 4698.87 5351.56 3984.88 5318.53 3344.57 4732.09 5220.76 6945.98 5138.2 6412.67 4593.7 7001.83 4482.9 4349.13 3766.69 5188.53 4521.75 6746.66 5410.33 4642.74 6735.97 3636.15 5483.7 5135.63 6384.7 4355.83 3896.27 5963.36 5230.02 5169.48 6016.08 5166.89 5491.63 6064.71 4731.21 3868.62 6102.98 5138.33 3425.69 4971.29 6280.13 5244.22 5585.14 7039.98 4729.42 4159.81 5089.26 4901.44 3886.72 5971.22 4909.31 5711.62 4785.25 5435.19 4270.15 5461.55 7093.13 3298.2 5926.11 6667.68 6213.04 4497.31 5211.38 2990.77 3163.78 4925.63 3830.46 4305.16 5965.15 4888.6 4666.81 5882.65 5078.86 7042.12 4797.52 4780.2 6326.39 5501.93 5462.21 4471.58 5463.38 6313.06 5374.98 5226.56 5945.21 6345.13 5274.19 5599.49 4050.08 4719.7 4097.57 5452.42 5017.5 5005.85 4893.49 5325.44 5102.75 4834.87 5938.17 5760.22 4795.43 5607.3 2928.82 4811.76 4638.18 5498.42 4196.37 5806.31 6448.66 4453.97 3556.79 3503.41 7317.04 3971.08 6204.65 6550.4 5513.8 5036.98 4120.07 4882.66 3840.21 4081.34 3908.56 4844.83 5244.78 5652.87 5377.37 4311.48 5018.69 5952.38 3152.86 6394.19 5807.52 5087.14 5518.11 4192.21 5712.35 4743.9 3124.7 3719.11 3743.76 6060.17 5153.18 6711.21 3684.15 5510.45 4236.86 4730.14 5832.29 2606.51 4438.76 6456.58 6006.89 5244.98 3814.65 5415.45 3965.3 4998.22 5533.19 5792.98 3776.8 5417.21 5096.43 6156.21 6602.43 3562.79 4383.56 6306.21 4990.79 6865.76 5253.37 5424.46 5235.11 5266.01 4721.32 5767.9 6515.8 3293.56 6031.67 6413.11 5092.28 4739.14 4918.77 5163.55 4636.5 4819.73 6817.32 3382.7 6471.55 5085.71 4319.79 6643.85 5960.56 6343.14 4020.95 6049.79 5862.86 4390.41 6113.95 4901.07 3981.07 5186.3 6496.52 3991.42 3718.69 4388.63 5966.61 4514.79 4940.28 2216.82 3672.21 4509.89 6752.75 3004.34 5269.38 5375.1 3022.6 5211.6 4172.6 4745.79 5470.04 5456.71 4908.75 6556.26 5438.92 5684.25 4244.49 4124.76 4050.03 4775.04 4952.52 4813.33 4833.55 4954.76 3646.95 6334.53 4749.96 4906.11 5869.67 4387.39 4899.73 4564.1 5457.66 4848.14 5366.22 5973.89 6193.73 5254.24 5701.52 3742.11 3597.43 6776.22 4467.13 5321.17 3877.8 6273.6 5902.67 5454.11 3994.39 5393.76 4941.02 3864.92 4618.73 2955.36 3668.93 4960.64 4983.3 6592.93 6104.26 6350.71 6436.74 3568.28 5583.61 4798.17 4953.1 5425.98 5166.79 2895.63 4516.53 5818.95 6449.64 3940.49 2040.66 4857.84 6464.8 5384.76 7016.27 5529.42 5274.14 5257.12 4434.19 6138.12 4428.78 4903.82 5100.1 4965.89 4940.42 3954.91 3703.1 5746.28 4371.99 5923.4 4623.61 4946.42 5187.7 5409.66 4082.47 3561.29 2965.01 6235.57 6263.44 4863.27 5122.63 5774.97 2315.64 6766.43 4703.08 4890.5 6934.37 3423.15 4488.85 3731.84 5010.2 3554.48 4579.69 4997.83 6123.03 5578.94 5148.08 6192.0 5885.28 7610.49 6579.31 6028.09 4609.02 5323.55 3804.5 5452.36 4896.65 6486.37 5561.74 6083.28 6100.73 5975.23 4788.08 4198.94 6163.54 4211.82 5212.37 6003.78 2628.22 5058.51 4901.29 3899.7 7200.89 4147.49 4802.98 4705.68 7224.99 5384.86 4869.48 3623.19 4658.24 4745.16 5509.51 5825.55 5719.79 3199.4 4316.5 7261.51 4968.14 4158.91 4914.03 5086.29 5144.56 5311.55 5139.18 4869.25 3360.86 3034.16 4763.4 5545.21 4333.87 5024.32 4708.17 3779.45 2741.2 5806.61 5790.42 4983.1 5784.37 6119.99 7123.04 4128.1 4009.24 5372.82 4385.81 4402.17 7778.01 4034.05 5690.96 2460.79 4653.83 6063.64 5996.66 4093.99 6479.39 4122.92 5079.22 4997.91 3604.14 2978.76 4908.49 4452.54 6622.11 4962.21 4689.15 5884.9 5089.62 3685.65 6790.73 3685.13 4590.55 5243.43 5659.95 4741.26 6090.91 5920.32 4186.6 4537.14 3701.16 4152.85 3295.83 5551.9 4219.78 5644.82 5203.08 6413.02 5412.31 6736.03 3492.19 5374.07 4584.5 4118.84 3623.87 5548.29 5916.16 5163.77 5469.13 6027.62 6098.95 5765.42 4817.16 5453.98 5660.55 5653.03 4157.29 3989.7 5107.0 4777.03 4246.61 4286.17 3684.56 5327.75 4946.23 4852.58 4532.7 4504.86 3217.67 4473.29 5079.64 996.652 4680.69 6500.49 5965.58 3352.34 4607.18 2403.72 5078.59 4365.58 5134.33 2646.13 5419.57 4636.53 5162.67 3629.49 5760.98 5469.35 4019.34 3835.81 5429.3 5510.96 6653.07 4697.91 4584.81 5071.98 4371.08 5148.1 5224.64 5949.73 5214.63 4312.48 3495.68 5527.13 4278.57 5049.99 5551.43 4201.03 6318.25 5136.87 5638.7 5001.87 3667.93 5813.79 4644.88 5293.13 6010.59 5591.77 4446.58 3682.35 3756.96 5401.4 5127.82 5798.38 4456.11 3862.91 4125.9 5096.24 5366.11 4986.71 6171.71 4405.42 7382.3 2995.67 3598.08 4022.56 4599