# vtk DataFile Version 2.0
Time step 64
ASCII
DATASET UNSTRUCTURED_GRID
POINTS 5000 float
207175.0 236126.0 0
297780.0 235775.0 0
201579.0 237022.0 0
205031.0 240067.0 0
214500.0 236653.0 0
208115.0 239736.0 0
222335.0 238744.0 0
229292.0 237978.0 0
233131.0 236512.0 0
233181.0 239884.0 0
237858.0 239378.0 0
243547.0 240442.0 0
256249.0 240085.0 0
266169.0 241013.0 0
270981.0 238122.0 0
277707.0 236573.0 0
285704.0 239803.0 0
291413.0 238132.0 0
297649.0 241096.0 0
201110.0 242074.0 0
207261.0 243870.0 0
211449.0 241250.0 0
214245.0 245467.0 0
217705.0 241456.0 0
222534.0 244220.0 0
226290.0 241268.0 0
230215.0 242617.0 0
234856.0 244089.0 0
239924.0 245204.0 0
250109.0 241712.0 0
245084.0 245778.0 0
257797.0 244563.0 0
261196.0 241864.0 0
263816.0 245248.0 0
268161.0 245880.0 0
274936.0 242039.0 0
270483.0 242637.0 0
280426.0 242054.0 0
277696.0 246114.0 0
284290.0 244469.0 0
281473.0 246056.0 0
288040.0 244170.0 0
292759.0 243803.0 0
202891.0 247080.0 0
209846.0 248339.0 0
218630.0 247677.0 0
214605.0 250756.0 0
223472.0 249819.0 0
227586.0 246392.0 0
231967.0 247983.0 0
236489.0 248953.0 0
241637.0 250388.0 0
249838.0 247101.0 0
247175.0 250345.0 0
253852.0 246481.0 0
251938.0 250706.0 0
256635.0 250548.0 0
260516.0 247881.0 0
265133.0 250017.0 0
269737.0 249723.0 0
272956.0 246914.0 0
276271.0 249965.0 0
280554.0 249768.0 0
285309.0 248585.0 0
289400.0 247545.0 0
292994.0 248990.0 0
298189.0 247171.0 0
201898.0 251584.0 0
202762.0 255824.0 0
206088.0 251764.0 0
210716.0 255079.0 0
219140.0 252264.0 0
223065.0 255573.0 0
228681.0 251555.0 0
227259.0 255390.0 0
233443.0 252303.0 0
230959.0 255998.0 0
237475.0 253483.0 0
249607.0 254850.0 0
244953.0 254566.0 0
254294.0 254925.0 0
258838.0 256166.0 0
260843.0 252199.0 0
264452.0 256171.0 0
268552.0 253281.0 0
272907.0 252711.0 0
270585.0 255623.0 0
278058.0 254710.0 0
283846.0 253726.0 0
289155.0 251844.0 0
287774.0 256101.0 0
291312.0 255505.0 0
296210.0 253856.0 0
202050.0 260204.0 0
206753.0 259501.0 0
212033.0 260814.0 0
216924.0 257259.0 0
221767.0 260813.0 0
227104.0 259656.0 0
232799.0 260658.0 0
235029.0 256538.0 0
237283.0 259589.0 0
240891.0 257020.0 0
243814.0 261513.0 0
240811.0 261456.0 0
246795.0 259151.0 0
251626.0 259082.0 0
255691.0 258846.0 0
259611.0 261460.0 0
269249.0 258289.0 0
273474.0 257360.0 0
271912.0 261465.0 0
277660.0 260990.0 0
282313.0 258363.0 0
290301.0 258830.0 0
286277.0 259969.0 0
293698.0 258741.0 0
297553.0 259654.0 0
202031.0 263819.0 0
206820.0 265171.0 0
212512.0 266204.0 0
216876.0 263070.0 0
220913.0 265214.0 0
229570.0 263736.0 0
225464.0 265158.0 0
232593.0 265164.0 0
237242.0 264640.0 0
242825.0 265487.0 0
246497.0 263352.0 0
248011.0 266660.0 0
254387.0 262641.0 0
250242.0 263424.0 0
256912.0 265915.0 0
265887.0 262527.0 0
270327.0 265620.0 0
274525.0 265335.0 0
280463.0 264841.0 0
277950.0 265883.0 0
282832.0 262448.0 0
290586.0 262764.0 0
286469.0 263819.0 0
294460.0 262188.0 0
294029.0 266659.0 0
297854.0 263979.0 0
202299.0 267720.0 0
201938.0 271625.0 0
205536.0 270477.0 0
209362.0 269539.0 0
212953.0 271733.0 0
217643.0 269182.0 0
222562.0 268643.0 0
226283.0 270532.0 0
229790.0 267589.0 0
234128.0 269024.0 0
239636.0 270359.0 0
245006.0 270055.0 0
249184.0 270156.0 0
252528.0 267534.0 0
257228.0 270899.0 0
261499.0 266919.0 0
265945.0 268154.0 0
269271.0 268781.0 0
273020.0 269658.0 0
276549.0 268347.0 0
279679.0 268510.0 0
283635.0 266881.0 0
289077.0 266840.0 0
286590.0 270136.0 0
291076.0 271030.0 0
295340.0 270964.0 0
298375.0 267525.0 0
298499.0 270411.0 0
201646.0 274643.0 0
208599.0 274181.0 0
204561.0 274637.0 0
212623.0 275889.0 0
216917.0 275497.0 0
221776.0 272967.0 0
225775.0 275430.0 0
230641.0 271923.0 0
235187.0 273785.0 0
239221.0 275433.0 0
243311.0 274624.0 0
247617.0 274237.0 0
252408.0 272991.0 0
259658.0 274696.0 0
255990.0 276697.0 0
262950.0 272107.0 0
265107.0 276321.0 0
268228.0 272626.0 0
272985.0 273999.0 0
277365.0 272412.0 0
282379.0 271948.0 0
282659.0 276359.0 0
287182.0 274667.0 0
293548.0 274922.0 0
297874.0 273780.0 0
202344.0 277975.0 0
205764.0 278935.0 0
209769.0 278965.0 0
213807.0 278947.0 0
217073.0 281174.0 0
221508.0 278047.0 0
225943.0 280265.0 0
230956.0 277219.0 0
233685.0 281492.0 0
236457.0 278636.0 0
241633.0 279577.0 0
245715.0 277623.0 0
246116.0 281327.0 0
250658.0 278567.0 0
261062.0 278590.0 0
269624.0 277410.0 0
266160.0 281145.0 0
274299.0 277638.0 0
271750.0 281587.0 0
278502.0 276945.0 0
276468.0 281452.0 0
281510.0 280685.0 0
285515.0 279167.0 0
289889.0 278635.0 0
294293.0 279066.0 0
297838.0 277623.0 0
202723.0 282334.0 0
201744.0 285967.0 0
207204.0 282818.0 0
205231.0 286049.0 0
209031.0 286310.0 0
211964.0 282912.0 0
212997.0 286954.0 0
214993.0 284443.0 0
217680.0 286740.0 0
221881.0 283240.0 0
226940.0 285474.0 0
229882.0 282280.0 0
232374.0 285476.0 0
237520.0 283797.0 0
242440.0 284632.0 0
246406.0 285366.0 0
250323.0 283973.0 0
256168.0 282999.0 0
261870.0 283354.0 0
260397.0 287029.0 0
264924.0 286843.0 0
269126.0 284974.0 0
273930.0 286423.0 0
279027.0 285343.0 0
283983.0 284994.0 0
287325.0 282256.0 0
288171.0 287006.0 0
292053.0 283722.0 0
297300.0 282256.0 0
202595.0 289480.0 0
206701.0 289283.0 0
210650.0 289901.0 0
214835.0 290511.0 0
218912.0 291619.0 0
222771.0 288411.0 0
229946.0 288297.0 0
226999.0 290255.0 0
231625.0 291696.0 0
235189.0 288699.0 0
239528.0 288553.0 0
244342.0 289513.0 0
240931.0 292204.0 0
249110.0 288711.0 0
252934.0 287545.0 0
252012.0 292291.0 0
256821.0 290155.0 0
261957.0 290829.0 0
269683.0 289291.0 0
265746.0 291255.0 0
273749.0 292140.0 0
277852.0 289899.0 0
281757.0 288564.0 0
281932.0 291565.0 0
284975.0 289956.0 0
289008.0 291872.0 0
291994.0 289005.0 0
296473.0 287854.0 0
203001.0 294041.0 0
207954.0 293372.0 0
212662.0 293956.0 0
216376.0 294105.0 0
223182.0 293108.0 0
219703.0 295848.0 0
223605.0 297545.0 0
227583.0 294567.0 0
231975.0 296556.0 0
236813.0 293668.0 0
241067.0 295295.0 0
244026.0 294165.0 0
247804.0 293012.0 0
246599.0 296365.0 0
250159.0 296722.0 0
259706.0 294366.0 0
255251.0 296574.0 0
264172.0 295816.0 0
268985.0 293792.0 0
268123.0 297278.0 0
271873.0 296698.0 0
275407.0 296510.0 0
279166.0 294638.0 0
284962.0 294990.0 0
290512.0 296742.0 0
293391.0 292701.0 0
297441.0 292793.0 0
202588.0 298989.0 0
206319.0 297900.0 0
207563.0 302262.0 0
210616.0 298061.0 0
212176.0 302372.0 0
215735.0 298585.0 0
220352.0 300407.0 0
227839.0 299256.0 0
224536.0 301429.0 0
231660.0 301674.0 0
235905.0 299068.0 0
239909.0 298335.0 0
243457.0 297722.0 0
242382.0 301717.0 0
246832.0 300453.0 0
251917.0 301640.0 0
259985.0 298636.0 0
256932.0 301965.0 0
263097.0 300373.0 0
266545.0 300306.0 0
270451.0 300403.0 0
274769.0 300529.0 0
277885.0 298674.0 0
278936.0 302030.0 0
281826.0 298972.0 0
286541.0 300676.0 0
292038.0 301399.0 0
296278.0 297765.0 0
202767.0 303209.0 0
201523.0 306658.0 0
205895.0 306873.0 0
209783.0 305365.0 0
213131.0 305796.0 0
216927.0 303819.0 0
222134.0 304838.0 0
227842.0 304408.0 0
233003.0 306823.0 0
235445.0 303272.0 0
238842.0 302554.0 0
237225.0 306121.0 0
244678.0 304956.0 0
240719.0 306203.0 0
248438.0 304774.0 0
254777.0 305506.0 0
257915.0 306450.0 0
260759.0 303412.0 0
265034.0 304314.0 0
261235.0 307400.0 0
268558.0 303456.0 0
269241.0 307531.0 0
272176.0 303915.0 0
273611.0 306867.0 0
276130.0 304722.0 0
280303.0 305806.0 0
282553.0 302766.0 0
284491.0 305880.0 0
288733.0 304472.0 0
292608.0 305714.0 0
297035.0 303109.0 0
201976.0 309517.0 0
204889.0 310565.0 0
207816.0 310289.0 0
210858.0 309107.0 0
215564.0 308505.0 0
219125.0 307747.0 0
214572.0 312115.0 0
218948.0 312048.0 0
222360.0 309998.0 0
225350.0 307955.0 0
229453.0 309348.0 0
225974.0 311981.0 0
233577.0 311387.0 0
237364.0 309924.0 0
243531.0 308644.0 0
241010.0 310037.0 0
244386.0 312162.0 0
246909.0 308437.0 0
248796.0 311641.0 0
251386.0 307635.0 0
252859.0 311650.0 0
255469.0 309140.0 0
258748.0 310272.0 0
264792.0 308368.0 0
262116.0 311637.0 0
266364.0 311831.0 0
270401.0 312465.0 0
273126.0 309838.0 0
277094.0 309039.0 0
281279.0 309626.0 0
284521.0 309583.0 0
288549.0 308737.0 0
286502.0 312403.0 0
292559.0 310390.0 0
296728.0 308282.0 0
197272.0 319382.0 0
202705.0 313613.0 0
202119.0 317913.0 0
207091.0 313271.0 0
205329.0 316546.0 0
208692.0 317415.0 0
210920.0 313862.0 0
214057.0 316156.0 0
217004.0 315319.0 0
222785.0 314114.0 0
220213.0 316622.0 0
226853.0 316263.0 0
230066.0 313557.0 0
233158.0 315300.0 0
230713.0 317751.0 0
236497.0 314419.0 0
240331.0 313443.0 0
242936.0 316432.0 0
246922.0 315577.0 0
250798.0 314860.0 0
253950.0 314740.0 0
252612.0 317645.0 0
256399.0 312861.0 0
259551.0 314389.0 0
256791.0 317652.0 0
263579.0 316016.0 0
267778.0 315350.0 0
274572.0 313477.0 0
271335.0 317056.0 0
278499.0 313227.0 0
275921.0 317212.0 0
280092.0 317869.0 0
282818.0 313728.0 0
284151.0 317549.0 0
290227.0 313977.0 0
286769.0 316234.0 0
293503.0 313451.0 0
293844.0 316735.0 0
296931.0 313329.0 0
297696.0 317788.0 0
202264.0 321627.0 0
205433.0 319905.0 0
209110.0 320882.0 0
206290.0 323049.0 0
212113.0 318305.0 0
212857.0 321717.0 0
216731.0 319685.0 0
223579.0 318476.0 0
220716.0 320047.0 0
223709.0 321947.0 0
227694.0 320772.0 0
234550.0 318651.0 0
231317.0 320616.0 0
233586.0 322191.0 0
238880.0 318161.0 0
236865.0 322246.0 0
242380.0 319954.0 0
240469.0 322533.0 0
249591.0 318418.0 0
245788.0 319726.0 0
249068.0 321782.0 0
253355.0 321795.0 0
257729.0 322842.0 0
260812.0 319410.0 0
264722.0 320785.0 0
267126.0 318511.0 0
268929.0 321601.0 0
273529.0 320904.0 0
280407.0 322254.0 0
277434.0 321262.0 0
283525.0 321109.0 0
290117.0 318227.0 0
286921.0 319928.0 0
289894.0 322058.0 0
293722.0 320870.0 0
297752.0 321295.0 0
203089.0 325823.0 0
207749.0 326839.0 0
209853.0 324006.0 0
212784.0 325061.0 0
211620.0 328027.0 0
216664.0 324693.0 0
220273.0 323254.0 0
222694.0 325597.0 0
226314.0 325015.0 0
230700.0 324764.0 0
234780.0 325929.0 0
238450.0 326077.0 0
243935.0 322928.0 0
242177.0 326248.0 0
246675.0 323439.0 0
245881.0 326351.0 0
250129.0 326099.0 0
254846.0 326512.0 0
[...]
POINT_DATA 5000
SCALARS Radius float 1
LOOKUP_TABLE default
5120.0 5073.35 5415.48 3863.18 6182.6 2356.98 5258.36 5061.3 3163.97 3642.12 5812.43 5906.14 5254.28 5733.48 5580.89 6810.52 6110.27 5840.26 5670.04 4834.9 5085.53 4998.37 5351.6 5492.18 5867.73 3951.75 4499.64 5542.27 5122.66 7513.1 5484.19 4402.52 4436.4 4182.53 4672.91 5645.7 3588.44 5553.16 4366.19 3672.51 2938.66 4008.92 5561.06 6044.04 5484.83 4715.55 5538.89 6059.59 5013.56 4375.68 5054.98 6030.06 3557.27 5170.02 4688.68 4927.31 5185.34 4517.56 5903.42 3761.32 5176.86 4118.05 5065.13 4940.78 3615.22 4380.59 6716.79 3850.77 5546.39 5325.36 6759.9 4730.36 5926.61 5701.86 2720.68 4238.81 4955.55 4468.59 5200.76 5325.02 4862.64 5205.43 4432.58 6684.56 3955.56 5292.64 2635.86 6166.5 5936.02 5305.17 4231.61 3379.84 7613.27 4133.88 5945.65 5418.62 7021.47 5416.38 6051.14 5836.15 3563.63 4345.55 5885.03 2837.58 3653.41 5246.2 5017.13 3673.74 6116.18 3968.64 4385.06 4688.67 7184.19 4290.3 3942.53 4861.08 3607.45 4951.03 4094.62 6483.19 6230.49 5493.32 4601.27 4195.44 5740.68 3261.21 6704.06 5600.93 3871.88 3856.01 4827.23 4390.66 4911.47 7447.37 4924.6 4733.32 2924.37 2899.43 3867.67 4827.82 4003.05 3589.27 5759.91 4333.2 4665.12 3936.02 4927.02 4174.52 5109.54 7054.71 3641.64 5747.75 4277.89 5539.32 6496.85 5541.59 4124.71 5279.39 6337.56 5803.39 4381.97 3255.82 5242.73 2812.98 4065.69 5399.73 4805.87 4712.33 5227.21 3997.1 3260.67 3038.33 3383.4 5980.74 3856.1 3829.13 6458.82 5489.43 5054.25 4796.33 5360.19 4874.39 4839.34 5083.08 5728.85 3998.5 5525.39 5863.59 4024.3 6257.19 4737.14 5603.15 5390.22 4660.72 6038.78 5123.52 4295.38 4780.03 4044.71 5816.2 3091.3 5789.98 5527.54 5573.7 7325.81 4055.8 4794.96 6186.19 2980.99 4840.01 6834.49 5938.34 5555.28 6394.38 4686.65 5169.36 4695.45 5834.74 5556.96 3888.21 5697.78 4667.36 4392.68 5495.39 3554.9 4487.31 3996.0 4002.16 5693.81 4138.16 2540.31 6029.66 6138.47 5697.4 4727.62 5206.78 6425.26 5143.58 4484.76 5611.2 7933.0 5173.87 4455.12 5380.13 5118.27 5932.23 5788.23 6052.7 3921.18 5891.05 6902.81 5529.52 5252.48 4015.92 4778.34 4684.5 5120.49 6302.8 4005.44 4270.95 5555.88 5280.17 5028.96 6362.12 3866.16 5152.36 4220.65 5826.64 6820.42 4894.16 5711.87 4896.52 5791.61 5581.75 3798.62 3666.57 4254.17 5615.42 4091.31 7199.21 6124.89 5708.81 5043.05 3486.22 5409.61 4414.54 5262.61 6038.2 5713.22 6732.43 3183.98 4524.28 4511.82 3778.1 4727.24 4816.2 6959.81 6321.41 4941.22 3372.79 5282.64 4479.66 6392.01 6644.76 6372.62 4523.7 5255.32 5337.48 5542.21 5481.78 5924.89 4937.14 6894.71 5201.36 5094.81 4306.53 5972.06 5861.71 5017.78 3794.63 5015.69 6175.81 6677.09 4829.35 5813.4 4089.76 4751.02 5184.56 4715.72 3369.13 5367.2 5308.1 6730.19 4937.02 7565.34 5637.59 3103.0 6084.86 3307.12 4467.94 5551.36 6038.14 6135.57 5998.38 4312.67 4359.04 4270.24 4947.52 4989.15 4520.1 4305.57 3791.79 5201.67 5526.55 4754.05 3192.41 6084.93 4987.87 3315.57 4669.66 4808.52 3043.85 5461.13 4907.89 5629.19 6037.08 4049.23 3586.91 3115.91 5478.92 4933.21 4850.81 5094.44 5375.47 4723.12 5024.9 5659.17 4717.05 4562.29 5423.8 4164.13 3417.33 4926.42 4642.34 5153.74 5874.89 4165.81 4293.03 4424.7 4951.47 4925.44 5246.61 5215.15 4764.96 5607.24 4726.76 3599.45 5655.21 5090.24 5091.39 6756.95 4929.8 5601.05 4382.74 4948.92 4516.43 4749.8 5810.84 3748.24 4655.49 4809.42 4566.18 5856.11 5287.2 4234.94 4109.88 5013.13 5080.66 5110.45 5248.77 4528.09 3556.85 3895.51 4389.21 4128.98 6291.51 6246.22 4307.28 5046.33 5804.71 5053.92 5020.12 6352.26 5839.13 3735.44 5923.5 4073.93 2240.39 5096.78 6324.23 4727.24 4651.28 4384.42 4493.48 4362.19 4230.54 5082.6 6163.38 4964.09 3459.9 4093.08 5543.27 4980.85 3327.49 3960.8 5714.58 4923.9 3329.99 4973.78 4083.97 5208.32 4607.02 6673.96 5174.89 5882.89 4188.32 4100.38 5538.93 5727.3 3847.38 4242.52 4907.06 4645.41 4786.6 4433.59 5740.84 4612.68 6355.42 5690.56 3693.63 3937.74 5478.47 6061.47 4997.27 4449.22 5628.24 5992.26 5070.39 4613.31 3947.47 5091.68 3296.27 4713.25 6243.0 5441.96 4288.3 5370.52 5774.81 4739.42 3697.96 4899.11 4278.07 4745.45 5356.51 3818.59 3057.03 5495.68 5163.9 4973.83 5530.87 3912.37 3320.52 4310.18 4151.94 5927.43 5244.78 5762.84 5119.37 6142.37 3982.23 5806.08 5243.29 4853.39 5365.89 3130.65 4511.54 5004.67 5409.33 5196.0 4204.84 6119.09 5069.25 5048.89 3161.47 3435.9 3991.03 4652.29 4495.87 5344.77 4723.48 5027.98 5097.87 5281.28 4863.72 2631.9 4087.15 4143.08 5489.34 6043.3 5952.75 6445.94 4281.49 4129.43 4320.28 5293.9 4685.34 5492.26 4220.88 6640.13 5351.39 4583.31 4336.42 3402.32 7589.94 4466.03 4178.15 4898.94 7531.29 4733.04 5935.03 4755.47 6390.78 6826.57 4788.87 3746.31 5346.27 7267.18 4758.21 5002.48 5708.14 4262.82 5537.72 6342.25 6142.94 6327.9 6519.71 3092.35 3629.96 4714.54 5210.03 3320.11 4306.11 6022.17 4503.89 5903.66 5419.37 5985.29 4528.49 4247.23 4268.65 4694.83 5788.66 3903.75 4485.99 5475.8 7435.25 5543.46 5498.32 6475.1 5527.33 2691.29 6255.18 7500.97 3920.42 6332.36 5542.14 4218.06 4931.53 3843.58 6082.81 3191.99 5449.18 5367.52 4048.37 5030.91 5507.24 6851.54 5935.47 5313.66 2651.49 5275.32 5512.23 4649.22 5509.42 4354.08 5936.36 4520.62 5475.7 5229.48 5314.69 5127.16 6050.81 4249.46 4244.99 6022.72 4643.31 4969.21 6917.52 6256.02 4277.88 4668.71 7228.46 6623.85 8332.24 7134.64 6691.39 4602.25 4329.05 5110.37 4931.38 5664.98 4659.59 4322.15 5025.39 5101.59 4377.07 3813.22 3848.93 5570.3 5234.29 5349.31 4711.62 4114.24 5394.55 2976.22 4256.43 2682.24 5928.32 4016.18 5415.19 5526.75 5435.74 5560.26 5965.81 2330.66 3702.37 4177.19 3691.0 5402.21 2845.98 4880.14 5320.92 3948.23 5102.36 5228.18 5787.31 6122.55 5480.13 4736.58 3485.26 3240.09 4556.36 3369.23 4548.16 3688.8 3817.13 5893.5 3695.36 4547.19 6020.48 3963.86 5076.35 5200.05 4091.8 4645.58 5670.2 5181.4 5094.52 5166.79 4946.74 5996.33 3950.63 4612.62 4275.57 3619.07 5327.45 2983.99 6185.89 4750.17 5660.85 3990.25 3758.07 4752.51 4989.09 3587.05 6362.14 6719.88 5978.82 4342.9 5978.9 2739.94 4790.08 4270.53 4194.5 4792.73 5513.6 5264.06 4901.41 4515.71 5358.59 6202.55 5023.15 3844.9 6375.99 5273.35 4662.56 6259.23 3457.48 5417.15 3405.98 3688.16 4681.72 6631.19 5661.62 4467.04 5817.25 6385.23 3997.96 2614.4 3460.94 4439.35 4373.45 6184.4 4982.31 6229.37 5269.18 4406.1 5065.11 5034.59 4553.56 6155.31 6308.71 4223.33 5911.67 4187.56 5082.47 4840.84 5191.63 4501.51 5138.31 4551.24 3610.4 6387.01 7111.16 4871.44 4564.34 3838.56 6248.81 4853.02 5088.44 4998.21 3931.07 7440.72 3949.6 4945.39 4867.08 5626.61 6648.68 6363.92 5407.78 6205.93 3828.81 5830.72 5309.98 5289.52 6718.19 5314.85 4307.48 4305.43 4942.77 5450.44 3927.99 5069.84 3629.62 5329.64 3323.28 5344.25 4997.27 5987.17 6013.14 5925.6 5379.87 3708.04 4602.86 4581.13 3856.59 4621.75 4219.07 6338.89 5584.06 6480.17 6445.22 4962.77 5872.05 4256.67 5323.3 6079.11 3082.32 6430.39 4765.02 5376.71 5703.6 4448.13 5070.29 6326.18 4266.03 4713.74 5061.98 4923.24 6632.99 4537.6 4419.61 7177.44 4082.57 4236.14 3848.54 4407.87 5080.18 5941.4 4263.33 5266.5 5868.82 4051.44 4716.19 4301.06 4050.9 5344.0 5135.69 3456.98 4593.7 6045.46 4763.45 4478.15 5681.38 4043.57 4138.42 5011.31 3979.82 5006.58 5586.81 2765.2 4746.52 5572.95 5413.79 6723.16 5372.61 5402.24 3686.21 5013.42 4519.22 5210.48 5651.07 6101.92 4635.6 6239.84 4427.28 5370.85 3658.37 3178.54 5629.39 6157.04 4768.61 4807.28 5075.55 2261.36 4220.03 4084.49 6179.96 5703.07 5147.36 6260.79 4563.46 5169.9 5282.91 4425.84 6510.17 4871.96 4454.63 4066.38 5742.65 6695.82 6049.55 5514.76 6405.76 4290.14 4877.67 5835.78 4150.99 4020.32 3815.26 5445.87 4216.92 4571.7 4107.03 3970.25 3771.48 5198.77 5643.58 4292.06 5147.67 5577.04 4481.53 6318.18 5077.33 3948.17 3824.16 5330.45 5045.38 3689.45 3868.18 4959.34 5130.91 4948.5 5383.07 4527.02 4247.15 4531.14 4602.85 7552.94 3627.55 4051.34 4409.63 5521.25 5865.39 5949.46 3661.9 3776.94 2684.03 4010.57 5246.47 6191.29 5280.69 4522.21 5506.19 6923.84 6719.94 5449.46 6166.29 4950.67 6113.54 4662.43 3963.76 4043.66 5733.62 6553.94 5282.51 3797.33 3004.16 5331.02 7256.35 4800.69 5592.32 4523.88 3279.1 5709.62 4241.89 4978.31 5054.74 4099.77 5941.72 3498.2 4245.72 6562.18 5794.24 4704.72 5908.1 4541.21 4177.94 4344.58 5896.46 4502.5 3929.19 5922.5 4271.69 4850.01 3633.87 2775.04 3821.72 4810.12 5215.05 4138.46 6035.6 4986.77 5137.34 5423.0 5125.78 6034.41 5350.88 5452.83 5178.99 4790.78 4591.87 6422.84 6552.22 5379.09 7644.38 6004.68 6799.4 5278.36 5107.23 5533.42 5136.08 5558.68 4187.31 4599.38 3240.51 7422.36 5161.01 5227.59 4628.4 5453.6 5294.77 4709.05 5528.53 3077.84 4630.82 5255.18 5726.66 5460.65 4460.92 5945.89 4767.78 4042.28 4105.55 4863.23 5912.61 4402.67 5381.16 4948.98 4403.98 4981.9 4414.48 4560.84 4127.74 4537.32 5163.02 3066.13 4302.5 4156.38 2476.04 6048.7 6006.16 6009.88 4742.68 5634.83 4164.68 5495.84 6268.1 4862.21 5499.11 5113.21 4374.35 5347.48 6396.74 6898.19 5526.14 3627.82 5198.29 3975.31 4044.45 5262.19 5344.43 6070.58 4373.47 5022.28 5197.52 5615.35 4027.09 4135.62 5801.99 4860.33 4502.18 3685.13 5534.94 3312.06 5180.76 3361.26 4993.35 6218.95 5222.16 4690.55 5533.72 3678.08 4802.32 5518.57 5463.48 5730.33 4527.99 4543.1 4298.15 4376.7 5190.61 5832.37 6051.83 5409.63 4642.93 3973.12 4263.16 6024.75 4813.08 6799.88 5860.67 4540.86 3062.43 5426.78 5235.17 6566.1 4435.36 3555.86 6065.22 5565.13 6386.78 5227.52 4470.61 6193.35 6086.96 4729.43 4656.78 4092.24 5991.09 5105.16 4678.38 5126.91 5050.65 5448.61 5316.75 4827.33 5022.8 3784.5 7055.53 6133.92 3719.84 4178.4 7034.11 5782.6 2586.12 6261.42 6125.34 4011.77 5965.78 5252.34 4527.08 2965.79 4287.63 5776.37 7099.43 5315.4 4516.28 6449.45 5678.96 4244.9 4285.32 6048.86 6894.26 5490.43 4986.51 6169.11 5339.38 5172.53 4896.11 4318.48 6132.95 5266.22 5226.97 5754.18 3418.99 5132.68 4480.95 6595.03 4983.39 4558.15 5366.52 5417.8 5146.37 7132.12 4836.16 5151.11 5680.94 5581.55 5545.46 5193.01 6550.44 8325.01 3764.06 4440.81 5941.9 6642.76 6109.49 5987.42 5990.52 2967.38 5652.0 3764.1 4340.76 5463.41 4779.5 4421.12 4929.75 5254.49 4996.99 4221.28 4456.39 4631.83 4384.88 3701.27 6887.27 5233.78 4562.74 6008.49 4806.34 5776.57 3942.07 5133.97 7443.72 3937.08 6600.94 5371.02 5513.57 5013.67 5729.23 5669.65 5934.22 3780.23 4359.62 3471.03 5011.84 5253.55 5820.48 5062.71 6946.21 5975.63 4274.61 5433.8 4410.55 6314.07 3921.08 4190.31 7055.42 5486.68 5683.61 5100.25 5805.86 4049.02 4470.4 5311.03 5255.12 4285.66 3872.61 4238.4 3930.79 5365.24 4004.35 4763.96 5293.51 4446.06 5008.63 3450.93 4270.74 6293.89 5737.75 2761.07 3778.02 6552.21 4350.12 5227.02 3603.51 5670.0 4232.16 5300.96 4344.51 3781.77 3834.43 4707.06 5491.37 3474.5 3860.83 6348.03 5732.27 4523.39 5434.47 5829.22 6917.62 4497.78 5567.93 4243.79 5811.18 5332.65 6451.33 4835.83 5604.35 4159.35 5225.33 4237.98 6045.22 6439.37 6649.96 4614.3 4896.39 3633.79 6081.14 5480.83 5421.53 7144.24 5653.9 3600.43 5683.26 5598.74 4906.82 5131.24 4788.58 5260.34 5206.48 6155.1 4709.35 6586.45 5876.71 5826.04 5624.49 5339.78 3095.48 3745.84 4730.41 5188.81 4203.26 5696.88 5690.26 4004.04 6057.22 4156.2 4289.17 6072.45 4497.59 5564.02 6444.77 4470.98 5083.41 5759.46 6248.6 5443.58 3836.45 5346.68 4558.46 5020.71 5296.29 5997.88 4611.53 5094.48 2681.29 4360.23 5576.92 6408.83 4585.31 4586.19 6625.18 5323.91 5097.45 4047.87 4185.61 5742.47 4917.99 4367.78 4095.75 4298.45 3319.67 5222.51 4076.59 6609.84 5135.96 5164.1 5658.37 6074.94 5699.53 4250.88 3783.54 3475.67 4792.39 5278.56 5146.37 5631.14 6137.8 5433.65 4442.22 4887.76 6477.91 5413.31 3012.99 3091.67 6316.56 4081.97 4332.87 6420.81 4303.19 5401.99 5514.84 5134.39 4256.57 4607.85 5784.3 3914.2 4220.46 4287.53 6088.68 5937.08 6070.3 5612.21 5046.21 5894.61 4929.14 5687.83 5196.67 5004.23 6496.67 6442.69 5474.8 5226.0 6320.71 4648.04 4373.3 4750.78 4166.08 5029.78 5762.59 4861.06 4298.67 5960.66 5873.69 3979.26 6608.73 4962.09 3999.48 3923.03 4643.85 5411.85 5082.74 3999.94 5607.14 6915.83 4844.57 3901.8 4027.46 4864.22 5511.88 5941.61 4512.11 4933.65 6098.1 5708.99 6333.29 5687.85 6401.43 4558.47 5731.57 5662.55 5737.92 5839.71 3755.95 3056.7 5591.76 6234.32 5889.35 5010.04 4394.56 4570.98 5388.78 4275.07 5825.38 4573.72 5099.21 4163.74 6969.28 5636.4 6471.42 5283.8 4428.14 6464.15 4972.17 4479.11 6685.4 4222.77 4850.06 5268.38 5527.23 7038.89 4805.33 4814.12 3863.67 5980.95 4013.38 5067.56 3352.35 4343.78 2735.53 5263.3 4008.15 4909.65 4669.06 4811.32 6400.08 4743.59 4715.58 5208.14 3317.83 5580.92 4450.7 3532.3 5769.98 2221.99 3583.21 5442.32 4135.08 4643.56 5067.46 5128.57 4863.01 5620.74 6000.7 5945.08 5604.21 5139.5 3979.54 7493.3 5304.13 3527.05 4814.55 5833.06 6262.72 6607.87 3664.11 3365.82 4163.5 6481.79 5374.51 4123.6 5320.28 7092.87 4569.12 6098.14 4796.58 5750.71 6222.42 4472.17 5654.31 5470.77 4831.47 6062.05 6939.12 4735.33 4413.85 4406.4 6853.85 6171.13 4020.4 5092.37 2395.5 3374.08 3497.9 5782.48 4031.78 5950.04 2435.33 4074.48 4231.83 3614.96 4477.04 3886.68 4745.43 5703.74 4747.55 5831.96 5464.68 4539.07 2685.81 4510.8 4475.83 7509.24 5896.26 4587.67 5951.81 6101.13 5599.7 4296.69 3665.95 6238.32 5698.96 6804.79 6372.13 5369.5 5404.01 6016.19 4124.49 5535.91 3230.13 5714.25 5325.96 5412.24 6332.01 5016.02 7044.29 4234.18 7085.01 3936.95 6193.08 6069.3 5887.01 5168.35 6523.86 5116.6 3747.03 2783.85 7693.4 4286.49 4437.07 6184.88 5829.32 4396.25 3763.05 5151.52 5973.33 5092.24 4347.74 5369.08 4518.04 5291.9 4009.62 3580.58 5356.79 5233.29 4011.37 3169.67 4968.03 4312.56 4612.06 5204.04 3361.92 3306.14 5944.09 5490.58 5698.77 4863.79 4702.06 6515.84 5117.47 4143.78 4538.95 5724.64 4970.88 5224.12 4850.14 4763.66 6739.08 5463.38 3637.61 4471.58 5945.21 6313.06 3493.7 4938.74 6345.13 6470.3 4200.03 3474.39 4719.7 5516.95 5313.22 5328.22 5563.79 4151.76 3905.51 4721.02 3493.47 3546.71 4254.37 4596.75 4188.87 5768.57 4498.25 5564.23 3735.24 5151.21 5398.64 6574.95 6817.57 4568.41 6853.04 3624.7 3420.08 4912.04 4691.91 4255.34 5064.79 5480.3 7046.11 3427.63 4146.81 6342.48 5756.75 5093.82 5212.43 3924.14 5454.12 6918.35 4834.3 6348.54 4066.57 5642.35 6357.47 6101.57 4891.38 4793.65 5955.86 2949.12 4532.89 6176.67 4533.37 4848.46 2779.99 5887.38 4581.37 4049.16 4920.21 6942.34 5851.61 3658.05 5478.11 6153.94 6836.82 3862.77 3858.17 4631.99 5388.39 4356.49 3728.18 4326.48 5335.47 4526.81 3449.37 3994.07 5491.9 4219.94 6405.0 5551.95 4264.91 4659.16 3918.87 5549.49 4766.06 3101.75 5423.42 4874.18 2511.46 6605.86 2081.58 2775.69 4778.82 6505.78 5657.36 6124.08 5467.84 5029.47 3619.79 4750.58 5876.64 5395.14 6710.88 3967.48 2477.07 3464.83 4923.41 6213.04 2990.77 4925.63 4497.31 3163.78 5965.15 4888.6 4305.16 3293.56 4666.81 5882.65 5078.86 7042.12 4780.2 4797.52 6326.39 6643.85 6343.14 5501.93 4020.95 5462.21 6049.79 5374.98 5274.19 5226.56 5599.49 4050.08 4097.57 5017.5 3436.15 5005.85 5711.11 4216.17 4575.94 5102.75 6484.17 5021.88 4938.72 5956.65 4597.29 4200.09 5931.77 5108.06 4222.4 4693.52 3573.73 4000.43 4661.03 5160.59 4320.42 5262.35 4281.98 7165.9 5344.83 4701.5 4863.97 4449.98 4771.65 5589.37 4840.44 5439.49 6639.64 3687.65 4887.52 5478.95 3851.85 6318.23 4206.98 5156.76 5174.75 5932.07 5948.71 3856.53 5460.89 6040.74 5742.09 5260.85 2884.65 5393.65 5807.46 4648.21 4393.16 4595.12 3311.29 4549.69 3110.13 5526.31 5030.15 3477.1 3644.78 4078.93 4740.98 3185.39 5934.82 5128.77 5633.61 4243.26 5048.19 6799.23 5907.46 4153.84 4888.27 6740.71 5399.29 5789.55 4633.05 4901.2 2275.45 6522.59 5012.5 4785.25 6519.43 4270.15 5053.95 3298.2 6306.21 5926.11 6667.68 5235.11 4721.32 5211.38 3830.46 6031.67 6413.11 5092.28 4739.14 4918.77 4636.5 5163.55 4819.73 3382.7 6817.32 6471.55 3954.91 5085.71 5923.4 4319.79 6263.44 5960.56 5122.63 5774.97 5862.86 2315.64 4390.41 4703.08 4890.5 6113.95 3981.07 4901.07 5452.42 5186.3 5966.61 4893.49 4514.79 5325.44 4834.87 3672.21 5760.22 5938.17 4795.43 5097.95 2928.82 5313.12 4914.45 4698.87 3984.88 5351.56 3344.57 5318.53 5220.76 4732.09 6945.98 5783.48 5138.2 7001.83 4504.35 5012.97 4349.13 4036.91 5110.11 6379.14 5216.26 3634.5 6631.28 6571.31 4392.65 4058.87 6413.15 6103.11 5048.55 4984.46 4024.31 5844.72 3992.97 4147.31 5989.05 4054.22 7228.94 4441.22 4961.99 5853.89 6551.93 4386.8 6484.43 6423.81 4625.67 3485.54 6192.77 4312.15 4583.52 6418.11 4501.78 7122.87 4922.49 3572.94 5797.36 5001.58 4820.17 5119.86 4592.15 6487.56 5084.17 4854.11 5971.22 4901.44 4998.22 4909.31 5533.19 5711.62 5417.21 5435.19 4383.56 5461.55 7093.13 3562.79 4990.79 6865.76 5424.46 5253.37 5266.01 6515.8 5767.9 2040.66 5384.76 5529.42 5274.14 6138.12 5257.12 4434.19 4428.78 4903.82 5100.1 4940.42 4965.89 4371.99 3703.1 5746.28 4946.42 5187.7 4623.61 4082.47 5409.66 3561.29 3295.83 5203.08 2965.01 6413.02 6235.57 5412.31 4863.27 3492.19 4584.5 4118.84 6766.43 3623.87 5916.16 6934.37 4488.85 3423.15 3731.84 4579.69 3554.48 5010.2 6123.03 6496.52 4997.83 3991.42 4388.63 3718.69 6192.0 4940.28 2216.82 4509.89 5885.28 6752.75 3004.34 5269.38 5607.3 3022.6 5375.1 4811.76 4172.6 5498.42 4638.18 4196.37 6448.66 5806.31 3556.79 4453.97 7317.04 6412.67 4482.9 4593.7 3766.69 4891.67 5513.8 6818.91 3503.65 4521.75 4027.63 3429.57 5569.2 5350.88 5420.67 6735.97 5305.59 5416.45 6459.51 4330.58 5754.6 4955.16 3288.01 4904.51 2202.77 5751.15 5950.88 4149.55 5474.01 6201.86 7554.58 3380.69 4140.4 3639.44 5446.4 4725.01 5966.75 4458.64 5510.9 3657.69 4883.63 6015.02 3492.83 5244.22 5585.14 7039.98 4729.42 6456.58 4159.81 5089.26 3886.72 5415.45 3776.8 5096.43 6156.21 6602.43 3568.28 4798.17 5425.98 4953.1 5166.79 4516.53 2895.63 6449.64 5818.95 4857.84 3940.49 2978.76 6464.8 4908.49 7016.27 4962.21 6622.11 5884.9 4689.15 5089.62 6790.73 4590.55 5659.95 5243.43 6090.91 4741.26 5920.32 4186.6 4537.14 4152.85 5551.9 3867.19 4219.78 4963.34 4188.3 5081.78 4260.92 5499.39 5644.82 4407.9 4440.57 6736.03 5374.07 3087.09 4055.54 5548.29 7480.41 5163.77 3766.55 6027.62 5469.13 5765.42 4976.12 6098.95 4817.16 5148.08 5453.98 5653.03 5578.94 4777.03 7610.49 6579.31 4286.17 6028.09 5323.55 3804.5 5452.36 6486.37 6083.28 5211.6 6100.73 4745.79 5470.04 5456.71 3503.41 4908.75 6556.26 3971.08 6204.65 5684.25 6550.4 5438.92 4244.49 5036.98 4120.07 5188.53 4882.66 6746.66 5410.33 3908.56 4642.74 4844.83 5244.78 3636.15 5652.87 6114.89 5135.63 6384.7 4355.83 6870.97 5351.86 6056.87 5230.02 5307.35 4342.18 6016.08 5166.89 5491.63 5725.37 3868.62 5138.33 3743.76 4505.28 3425.69 4971.29 6280.13 5510.45 3684.15 4730.14 4438.76 5832.29 3994.39 6006.89 4618.73 3814.65 5244.98 3965.3 4960.64 5792.98 6592.93 6350.71 6104.26 5583.61 6436.74 2460.79 4653.83 6063.64 5996.66 4986.71 6479.39 4093.99 5079.22 4122.92 4997.91 4452.54 3604.14 4684.44 5381.54 4406.05 4749.59 4680.94 4858.44 3685.65 3468.42 3685.13 4673.35 5799.69 3876.21 4655.16 5571.72 4916.22 5869.4 3701.16 6022.7 5297.19 5251.4 4345.67 4255.85 4453.64 5019.93 5511.6 3885.86 4459.28 5235.29 4517.73 5177.64 4255.31 6116.33 5453.3 3838.47 4479.94 2588.37 6250.23 4435.51 5887.15 4718.54 8659.64 6599.66 4588.7 4886.12 6419.12 5683.95 6107.89 4301.61 4233.8 5206.33 4446.84 5530.49 5065.26 5660.55 4304.41 6789.23 3989.7 4157.29 5107.0 4246.61 6212.15 3684.56 5327.75 4609.02 4852.58 4896.65 5561.74 5975.23 4504.86 4473.29 4788.08 4198.94 6163.54 5212.37 4211.82 6003.78 2628.22 5058.51 4901.29 3899.7 4124.76 4050.03 4775.04 4813.33 4952.52 3840.21 4833.55 3646.95 4081.34 7224.99 4954.76 6334.53 5377.37 5869.67 4311.48 5483.7 5018.69 3152.86 5952.38 3896.27 5973.89 5807.52 5963.36 5518.11 5087.14 5712.35 5169.48 5701.52 4731.21 4743.9 3124.7 6064.71 6102.98 3719.11 6060.17 5153.18 6711.21 4236.86 5393.76 2606.51 4941.02 3864.92 6119.99 2955.36 7123.04 3668.93 4128.1 4983.3 5372.82 4402.17 4385.81 4034.05 7778.01 5690.96 4456.11 5798.38 3862.91 4125.9 5096.24 6171.71 7382.3 4405.42 3598.08 4668.88 2995.67 4599.81 4022.56 5522.21 5698.23 5810.77 5089.1 5828.35 2711.19 4714.83 5876.72 4028.32 5689.26 5236.43 3809.69 4992.42 7051.9 4680.14 4940.84 5097.69 5895.77 4765.72 6261.75 5857.79 2908.7 3757.34 6415.61 4039.91 4338.08 5276.7 5660.16 4541.8 6134.99 5191.08 5424.88 4062.5 4199.45 5148.58 5415.85 3548.39 5421.64 7234.66 4858.51 4207.54 4603.5 5625.65 4936.96 3184.64 4481.76 5375.12 5452.78