# vtk DataFile Version 2.0
Time step 38
ASCII
DATASET UNSTRUCTURED_GRID
POINTS 5000 float
205010.0 351660.0 0
288189.0 352536.0 0
297464.0 352366.0 0
202699.0 356211.0 0
207403.0 354654.0 0
206950.0 357711.0 0
212088.0 353359.0 0
216484.0 358845.0 0
221694.0 357388.0 0
226681.0 358644.0 0
282953.0 356053.0 0
297173.0 357635.0 0
202411.0 361008.0 0
207471.0 362058.0 0
211156.0 358657.0 0
221811.0 361902.0 0
229402.0 362195.0 0
230710.0 359161.0 0
235087.0 358786.0 0
240461.0 360703.0 0
245377.0 363099.0 0
251586.0 362710.0 0
257867.0 362813.0 0
262545.0 362145.0 0
266382.0 358893.0 0
271748.0 357313.0 0
270689.0 363592.0 0
273833.0 361165.0 0
278142.0 359910.0 0
280788.0 363976.0 0
284935.0 361682.0 0
289553.0 358209.0 0
289227.0 362941.0 0
293899.0 361855.0 0
203574.0 365839.0 0
209192.0 366907.0 0
212530.0 363244.0 0
213996.0 367876.0 0
217680.0 364260.0 0
225715.0 363244.0 0
222460.0 366294.0 0
228999.0 366169.0 0
233402.0 364056.0 0
238438.0 365673.0 0
243679.0 367942.0 0
247832.0 366880.0 0
255418.0 367068.0 0
259439.0 367309.0 0
263338.0 366486.0 0
266466.0 363747.0 0
267692.0 368565.0 0
272119.0 367313.0 0
275790.0 364827.0 0
279199.0 367586.0 0
283531.0 367752.0 0
288130.0 368487.0 0
286835.0 365160.0 0
291517.0 365644.0 0
296671.0 367017.0 0
201901.0 369936.0 0
200185.0 377255.0 0
202736.0 374036.0 0
206250.0 370538.0 0
211463.0 371884.0 0
215829.0 373980.0 0
218618.0 369850.0 0
225945.0 369966.0 0
222440.0 371464.0 0
230618.0 370127.0 0
228889.0 373295.0 0
234645.0 368873.0 0
234964.0 373389.0 0
239361.0 371007.0 0
243607.0 374126.0 0
247498.0 371275.0 0
251462.0 368896.0 0
252900.0 373409.0 0
257243.0 371471.0 0
261893.0 370721.0 0
270293.0 374752.0 0
271392.0 371332.0 0
275363.0 369893.0 0
279972.0 372265.0 0
285306.0 372875.0 0
291898.0 368838.0 0
290106.0 372755.0 0
293986.0 371079.0 0
296317.0 374832.0 0
193544.0 381252.0 0
190361.0 383708.0 0
193091.0 383965.0 0
197038.0 379484.0 0
196488.0 382858.0 0
200053.0 380587.0 0
203780.0 379703.0 0
207594.0 375784.0 0
212743.0 378245.0 0
220682.0 375034.0 0
218074.0 379069.0 0
225512.0 375113.0 0
228604.0 379071.0 0
231658.0 375495.0 0
238605.0 376689.0 0
242267.0 377568.0 0
249179.0 375974.0 0
245541.0 378793.0 0
253273.0 378866.0 0
256181.0 375801.0 0
260246.0 375321.0 0
265705.0 374308.0 0
273566.0 376294.0 0
269414.0 380237.0 0
275808.0 373575.0 0
277373.0 376476.0 0
281983.0 378106.0 0
286798.0 377578.0 0
292288.0 375758.0 0
289919.0 377066.0 0
292819.0 379045.0 0
295973.0 380455.0 0
298881.0 379815.0 0
301316.0 378628.0 0
302149.0 383176.0 0
304807.0 380455.0 0
307972.0 381701.0 0
182963.0 388594.0 0
186940.0 386271.0 0
190799.0 386553.0 0
191471.0 389137.0 0
194987.0 386820.0 0
200301.0 384609.0 0
205257.0 385279.0 0
208170.0 381281.0 0
210839.0 384164.0 0
215072.0 383197.0 0
219847.0 383655.0 0
223484.0 380029.0 0
227224.0 383505.0 0
230616.0 383078.0 0
234034.0 380135.0 0
238360.0 381490.0 0
241587.0 380506.0 0
244515.0 382770.0 0
249308.0 380737.0 0
247903.0 385180.0 0
252267.0 383404.0 0
257885.0 379666.0 0
263125.0 379744.0 0
260054.0 383727.0 0
273511.0 384014.0 0
275546.0 380393.0 0
276726.0 384964.0 0
279314.0 382800.0 0
282026.0 384838.0 0
285840.0 381401.0 0
282864.0 382471.0 0
284595.0 384220.0 0
289491.0 381034.0 0
292819.0 382601.0 0
292500.0 386503.0 0
296126.0 384730.0 0
298749.0 382970.0 0
296154.0 388996.0 0
299693.0 387199.0 0
303305.0 386951.0 0
306197.0 382911.0 0
310116.0 384447.0 0
306183.0 385365.0 0
309768.0 387554.0 0
314318.0 388009.0 0
175069.0 393584.0 0
179025.0 391568.0 0
182923.0 392478.0 0
185910.0 389656.0 0
188727.0 389493.0 0
186636.0 392275.0 0
189832.0 392678.0 0
193728.0 391708.0 0
197975.0 389309.0 0
197307.0 393991.0 0
201790.0 388441.0 0
200345.0 391762.0 0
204313.0 391622.0 0
208916.0 389029.0 0
213617.0 387841.0 0
217275.0 386875.0 0
221020.0 388564.0 0
223978.0 385005.0 0
226059.0 388502.0 0
223583.0 391898.0 0
230128.0 387093.0 0
235479.0 386164.0 0
239589.0 389466.0 0
240863.0 384898.0 0
244204.0 388250.0 0
251545.0 388034.0 0
255967.0 386057.0 0
264897.0 385010.0 0
260854.0 388980.0 0
266298.0 389578.0 0
269751.0 386549.0 0
270957.0 390751.0 0
274893.0 388883.0 0
279729.0 387643.0 0
283896.0 387230.0 0
286656.0 390119.0 0
288025.0 385298.0 0
290248.0 389619.0 0
296141.0 392752.0 0
293148.0 391547.0 0
299978.0 392239.0 0
303547.0 390802.0 0
306856.0 388747.0 0
307675.0 392487.0 0
310527.0 390545.0 0
310923.0 393581.0 0
314274.0 392521.0 0
318948.0 389799.0 0
317636.0 392504.0 0
322626.0 392547.0 0
165290.0 399173.0 0
168677.0 397737.0 0
171546.0 395061.0 0
171817.0 398065.0 0
178589.0 395854.0 0
174604.0 397079.0 0
182561.0 396144.0 0
186586.0 395593.0 0
190308.0 395658.0 0
193241.0 395485.0 0
195650.0 397362.0 0
199207.0 397620.0 0
201023.0 394563.0 0
203583.0 397057.0 0
208162.0 395083.0 0
212612.0 393050.0 0
216835.0 391169.0 0
220004.0 393927.0 0
223112.0 395750.0 0
228147.0 394077.0 0
232929.0 391116.0 0
237059.0 393983.0 0
242985.0 393161.0 0
247748.0 391148.0 0
246840.0 395856.0 0
251226.0 391497.0 0
250725.0 394821.0 0
255643.0 392148.0 0
263809.0 393185.0 0
268553.0 393937.0 0
273979.0 394823.0 0
278596.0 392781.0 0
282507.0 391211.0 0
285623.0 394139.0 0
289810.0 394452.0 0
294100.0 396528.0 0
297860.0 395649.0 0
301187.0 397507.0 0
297587.0 399015.0 0
305167.0 395958.0 0
310116.0 397263.0 0
314723.0 396877.0 0
319658.0 396087.0 0
323550.0 397895.0 0
326519.0 395376.0 0
330865.0 397846.0 0
334536.0 399262.0 0
160115.0 402281.0 0
157515.0 404189.0 0
162766.0 400929.0 0
167033.0 401544.0 0
170403.0 401098.0 0
169650.0 404040.0 0
173263.0 400074.0 0
176892.0 400098.0 0
173653.0 402977.0 0
176976.0 403445.0 0
180395.0 398803.0 0
180914.0 402223.0 0
184121.0 399509.0 0
186188.0 403116.0 0
188370.0 399233.0 0
192344.0 398974.0 0
190797.0 403299.0 0
196009.0 401566.0 0
200828.0 400888.0 0
203756.0 400469.0 0
207523.0 400518.0 0
212185.0 398493.0 0
216397.0 396392.0 0
220097.0 398311.0 0
224204.0 399095.0 0
228484.0 400082.0 0
232685.0 397172.0 0
240640.0 397537.0 0
236553.0 399528.0 0
244636.0 400309.0 0
249731.0 399509.0 0
254070.0 397998.0 0
259968.0 397437.0 0
265865.0 398009.0 0
263948.0 401710.0 0
270432.0 398894.0 0
275013.0 400322.0 0
278585.0 397919.0 0
282236.0 395970.0 0
286639.0 398513.0 0
290907.0 399892.0 0
295454.0 401919.0 0
300781.0 402380.0 0
304430.0 400584.0 0
307929.0 401050.0 0
312188.0 401420.0 0
316245.0 400890.0 0
320095.0 400773.0 0
319454.0 404344.0 0
325736.0 399506.0 0
323758.0 402133.0 0
328143.0 399930.0 0
327944.0 402844.0 0
331940.0 402307.0 0
335631.0 402436.0 0
337443.0 400265.0 0
339519.0 403175.0 0
343106.0 404106.0 0
151947.0 407816.0 0
148907.0 409587.0 0
154466.0 405894.0 0
157410.0 408013.0 0
154316.0 410315.0 0
161432.0 405706.0 0
165144.0 404544.0 0
172122.0 405898.0 0
168859.0 407650.0 0
175247.0 406213.0 0
172818.0 409684.0 0
178595.0 405986.0 0
182862.0 406000.0 0
187205.0 407119.0 0
190873.0 407094.0 0
194602.0 405972.0 0
199608.0 405359.0 0
203804.0 403640.0 0
207796.0 405365.0 0
211019.0 407448.0 0
211990.0 403438.0 0
215091.0 407148.0 0
216677.0 401942.0 0
220933.0 401955.0 0
224614.0 403770.0 0
232632.0 402982.0 0
237368.0 403547.0 0
239886.0 401508.0 0
239188.0 406474.0 0
244938.0 404993.0 0
241689.0 404423.0 0
248363.0 403651.0 0
252769.0 403999.0 0
256328.0 401683.0 0
260126.0 404417.0 0
264751.0 406191.0 0
267752.0 402648.0 0
272036.0 403586.0 0
275723.0 404487.0 0
278923.0 403012.0 0
282695.0 401082.0 0
287186.0 403878.0 0
291356.0 404078.0 0
290393.0 407360.0 0
294471.0 406276.0 0
297814.0 405305.0 0
301279.0 406833.0 0
306278.0 405169.0 0
310865.0 404925.0 0
310762.0 408904.0 0
315344.0 404782.0 0
313633.0 407725.0 0
317233.0 407941.0 0
320240.0 407602.0 0
323866.0 405807.0 0
323402.0 409467.0 0
331605.0 405741.0 0
327990.0 405926.0 0
331325.0 409189.0 0
334967.0 404957.0 0
334393.0 408070.0 0
338356.0 406776.0 0
345981.0 406313.0 0
342880.0 407999.0 0
346919.0 409863.0 0
348864.0 407904.0 0
351365.0 410030.0 0
142136.0 413669.0 0
145565.0 411707.0 0
144748.0 415213.0 0
151537.0 411220.0 0
148656.0 412607.0 0
151560.0 413389.0 0
154937.0 413965.0 0
157529.0 411501.0 0
161357.0 410403.0 0
162245.0 414402.0 0
158916.0 413919.0 0
165058.0 409326.0 0
164929.0 413402.0 0
168385.0 411795.0 0
176490.0 409277.0 0
172225.0 414151.0 0
176814.0 413015.0 0
179854.0 409514.0 0
181739.0 413280.0 0
183784.0 409493.0 0
185887.0 411124.0 0
188992.0 410570.0 0
193080.0 409998.0 0
197120.0 409343.0 0
195683.0 413206.0 0
201213.0 409674.0 0
199838.0 413049.0 0
204243.0 407921.0 0
204150.0 412760.0 0
207655.0 410134.0 0
211935.0 411271.0 0
216578.0 412218.0 0
219776.0 406567.0 0
223976.0 408235.0 0
228204.0 406922.0 0
230030.0 411300.0 0
232119.0 408123.0 0
235716.0 407097.0 0
238399.0 410514.0 0
242917.0 409358.0 0
247298.0 407588.0 0
251213.0 409802.0 0
256574.0 408718.0 0
261593.0 409894.0 0
265616.0 410786.0 0
269407.0 407622.0 0
272552.0 411028.0 0
274281.0 407613.0 0
278556.0 407516.0 0
280103.0 410892.0 0
282771.0 406218.0 0
283411.0 410969.0 0
286752.0 408389.0 0
289662.0 410919.0 0
293463.0 409942.0 0
297964.0 409493.0 0
304484.0 408710.0 0
302548.0 411098.0 0
307498.0 410765.0 0
312518.0 413251.0 0
315308.0 410741.0 0
319910.0 411774.0 0
324472.0 413478.0 0
327582.0 409990.0 0
330048.0 412988.0 0
333493.0 412094.0 0
336635.0 410421.0 0
340503.0 412070.0 0
345155.0 412249.0 0
349267.0 412437.0 0
352493.0 414516.0 0
354361.0 411985.0 0
357511.0 413943.0 0
360992.0 415695.0 0
135013.0 417883.0 0
132432.0 419745.0 0
139312.0 415933.0 0
137786.0 418733.0 0
142152.0 420233.0 0
142225.0 417176.0 0
146046.0 418731.0 0
148325.0 415542.0 0
149274.0 419584.0 0
151419.0 416497.0 0
156830.0 416915.0 0
154169.0 417589.0 0
159653.0 417082.0 0
163267.0 417761.0 0
167649.0 416541.0 0
171168.0 418411.0 0
174473.0 417626.0 0
178288.0 416994.0 0
186465.0 414946.0 0
182377.0 417601.0 0
191242.0 414146.0 0
194399.0 417225.0 0
197758.0 415818.0 0
201030.0 416400.0 0
204815.0 417238.0 0
208249.0 414388.0 0
212413.0 415815.0 0
216218.0 417080.0 0
221387.0 411911.0 0
[...]
POINT_DATA 5000
SCALARS Radius float 1
LOOKUP_TABLE default
5120.0 5840.26 5073.35 5415.48 2356.98 3863.18 6182.6 5492.18 5258.36 5061.3 6810.52 5670.04 4834.9 5085.53 4998.37 3951.75 3642.12 3163.97 5812.43 5906.14 5484.19 7513.1 5254.28 4436.4 5733.48 5580.89 4672.91 3588.44 5645.7 4366.19 5553.16 6110.27 3672.51 5561.06 6044.04 5484.83 5351.6 4715.55 5867.73 4499.64 5013.56 4375.68 5542.27 5122.66 5170.02 3557.27 4688.68 4402.52 4517.56 4182.53 5903.42 3761.32 5176.86 4118.05 5065.13 4940.78 2938.66 4008.92 6716.79 3850.77 4133.88 5546.39 5325.36 5538.89 4730.36 6059.59 5701.86 2720.68 4238.81 3563.63 5054.98 4468.59 6030.06 5325.02 5200.76 4927.31 4862.64 5185.34 4432.58 3968.64 3955.56 5292.64 6166.5 5936.02 3615.22 5305.17 4380.59 7613.27 3936.02 4780.03 3383.4 4665.12 4927.02 4094.62 5945.65 6759.9 7021.47 5926.61 5416.38 4955.55 5836.15 4345.55 5885.03 2837.58 5017.13 5246.2 5279.39 3673.74 5205.43 6684.56 4688.67 7447.37 2635.86 4385.06 7184.19 4290.3 3379.84 4231.61 3942.53 4827.82 3607.45 4951.03 5759.91 4333.2 3038.33 5252.48 5495.39 3856.1 4044.71 5980.74 6483.19 6230.49 5418.62 4601.27 5493.32 5740.68 6051.14 4195.44 3261.21 6704.06 3653.41 3871.88 3856.01 4390.66 5541.59 4124.71 4827.23 6116.18 4911.47 4381.97 4924.6 3255.82 4733.32 2812.98 3867.67 2899.43 2924.37 4861.08 4003.05 5390.22 4805.87 3589.27 4712.33 5227.21 3997.1 3260.67 5529.52 4295.38 4392.68 7199.21 5337.48 6124.89 5708.81 3554.9 3996.0 4015.92 4487.31 5816.2 5109.54 5693.81 4174.52 3829.13 6458.82 7054.71 5489.43 3641.64 5747.75 4277.89 4796.33 5054.25 5539.32 6496.85 4794.96 5600.93 4874.39 5083.08 5728.85 5803.39 6337.56 3998.5 5863.59 4024.3 6257.19 5242.73 4065.69 5603.15 5399.73 4695.45 3888.21 4660.72 6038.78 5697.78 5123.52 4667.36 4091.31 4254.17 5615.42 5255.32 4523.7 6037.08 4382.74 5601.05 4049.23 3586.91 5481.78 4929.8 5542.21 5043.05 4002.16 4138.16 3486.22 4684.5 3091.3 5789.98 6138.47 5527.54 5573.7 4727.62 4055.8 7325.81 5360.19 6425.26 6186.19 4839.34 4484.76 2980.99 4840.01 6834.49 5525.39 5938.34 6394.38 5555.28 4737.14 4686.65 5556.96 6052.7 3921.18 5891.05 3798.62 6902.81 6644.76 6372.62 7565.34 5091.39 6756.95 6324.23 4727.24 4151.94 4685.34 4651.28 4384.42 4516.43 4362.19 3103.0 5637.59 4948.92 3115.91 3307.12 6084.86 4937.14 5478.92 5924.89 4778.34 5551.36 6894.71 4414.54 2540.31 6029.66 6302.8 5697.4 4270.95 5206.78 5555.88 5280.17 5143.58 5028.96 6362.12 5152.36 5611.2 7933.0 5173.87 4455.12 5380.13 5711.87 5118.27 5169.36 5834.74 5788.23 5581.75 6392.01 3666.57 5308.1 4937.02 5629.19 5090.24 4786.6 2240.39 5923.5 5096.78 4612.68 5293.9 4129.43 3320.52 6142.94 3843.58 4931.38 4736.58 4329.05 6082.81 5110.37 5927.43 6355.42 3693.63 5690.56 4493.48 5762.84 4749.8 5810.84 5094.44 4467.94 4850.81 6038.14 5120.49 5262.61 4306.53 5409.61 5094.81 6038.2 4005.44 5713.22 6732.43 3183.98 3866.16 3794.63 3778.1 4524.28 4511.82 5826.64 4220.65 6820.42 4816.2 4894.16 4896.52 3372.79 4941.22 5932.23 5791.61 4479.66 3369.13 5367.2 3043.85 5461.13 6730.19 4907.89 4907.06 5655.21 3735.44 4073.93 4645.41 5740.84 4433.59 4973.83 5530.87 4310.18 3912.37 4281.49 6342.25 4602.25 6691.39 4270.53 4194.5 5191.63 4501.51 4792.73 5513.6 3485.26 4556.36 3240.09 5664.98 3191.99 6327.9 4048.37 4659.59 5492.26 4220.88 5244.78 3937.74 6640.13 5478.47 5082.6 6142.37 4230.54 3748.24 4655.49 4933.21 5375.47 4566.18 4723.12 4964.09 5201.36 4809.42 5024.9 5659.17 6135.57 5972.06 4312.67 5861.71 4270.24 4359.04 5017.78 5015.69 6175.81 4727.24 6677.09 6959.81 4829.35 5201.67 6321.41 4089.76 4751.02 5184.56 3192.41 5282.64 4987.87 4715.72 4669.66 4808.52 5607.24 3599.45 4726.76 5839.13 5495.68 5163.9 6043.3 5952.75 6445.94 4320.28 5542.14 4218.06 7134.64 4790.08 5082.47 4840.84 5344.25 5344.0 4593.7 4043.57 4478.15 5379.87 5925.6 6013.14 3708.04 5138.31 4901.41 4621.75 5264.06 3688.8 3369.23 4548.16 5449.18 6519.71 3092.35 5210.03 5351.39 6061.47 5119.37 6163.38 4997.27 3459.9 4093.08 5543.27 4717.05 5287.2 4234.94 5998.38 4562.29 5423.8 5013.13 5080.66 3417.33 4989.15 4926.42 4164.13 4642.34 4520.1 4947.52 4305.57 5874.89 5813.4 4389.21 3791.79 4424.7 4754.05 4925.44 5526.55 4951.47 6084.93 3315.57 5215.15 5804.71 4764.96 5046.33 5020.12 5727.3 5053.92 4242.52 6352.26 3057.03 3847.38 3818.59 4863.72 5489.34 5002.48 5708.14 5537.72 4931.53 6332.36 6122.55 5480.13 5978.9 6308.71 4187.56 3629.62 4997.27 5135.69 4301.06 3456.98 6045.46 3815.26 4763.45 4150.99 4107.03 3771.48 5681.38 5198.77 4138.42 5147.67 5987.17 3979.82 4602.86 2765.2 5006.58 4581.13 4219.07 4551.24 5358.59 3610.4 4515.71 6387.01 5367.52 4322.15 5025.39 4714.54 3629.96 3320.11 5030.91 6022.17 3982.23 4583.31 4503.89 5806.08 4336.42 5243.29 4853.39 4449.22 5628.24 5856.11 3327.49 4109.88 3960.8 4980.85 5714.58 5110.45 5248.77 5208.32 3296.27 4083.97 4607.02 5153.74 3895.51 4528.09 4293.03 4165.81 6291.51 4128.98 5882.89 6246.22 5246.61 4307.28 3697.96 4739.42 5538.93 4899.11 4745.45 5281.28 5356.51 4277.88 4087.15 4143.08 7500.97 4262.82 6623.85 3920.42 5102.36 8332.24 2739.94 6155.31 4223.33 4716.19 5911.67 5514.76 6405.76 4290.14 4020.32 4877.67 5445.87 4245.72 4216.92 4177.94 4704.72 4571.7 4742.68 3929.19 4502.5 4271.69 5922.5 3970.25 3633.87 5643.58 4292.06 5577.04 5011.31 6318.18 5586.81 4481.53 3948.17 3856.59 4746.52 5413.79 6338.89 6202.55 7111.16 5893.5 3817.13 4547.19 5507.24 6851.54 5570.3 4306.11 3402.32 7589.94 3130.65 5004.67 5365.89 5992.26 5070.39 4923.9 3329.99 4973.78 3947.47 5091.68 4713.25 4204.84 6243.0 6673.96 3556.85 3161.47 5441.96 5174.89 3435.9 4288.3 5370.52 4188.32 4100.38 5774.81 5344.77 4723.48 5027.98 5097.87 4278.07 2631.9 7267.18 6255.18 4668.71 4758.21 7228.46 3948.23 5228.18 5787.31 5065.11 4342.9 4553.56 5329.64 6695.82 3323.28 5709.62 5835.78 6562.18 3498.2 4541.21 5908.1 6048.7 4344.58 5896.46 5634.83 5495.84 5782.6 5113.21 4862.21 4011.77 4527.08 5499.11 5347.48 2775.04 4138.46 4850.01 5215.05 3821.72 4986.77 5137.34 5330.45 5077.33 5423.0 3689.45 3824.16 5572.95 6723.16 5584.06 3686.21 6480.17 5023.15 3844.9 4377.07 3695.36 5101.59 3963.86 3813.22 3848.93 6020.48 5935.47 5903.66 4528.49 5419.37 4466.03 5409.33 4511.54 4898.94 5196.0 4613.31 4733.04 6119.09 5788.66 7531.29 5069.25 5048.89 3991.03 6390.78 7435.25 6826.57 4652.29 4495.87 3746.31 6022.72 5498.32 5527.33 5346.27 6475.1 2691.29 6256.02 5320.92 6362.14 4406.1 5034.59 6719.88 5978.82 3927.99 5069.84 5868.82 6049.55 4050.9 4051.44 4241.89 5054.74 5941.72 5794.24 3066.13 4127.74 2476.04 4302.5 4156.38 6009.88 6006.16 5316.75 4164.68 5022.8 6268.1 3784.5 4178.4 3719.84 5820.48 7034.11 6261.42 2586.12 6125.34 5965.78 4374.35 6396.74 4810.12 6898.19 6035.6 5198.29 4044.45 3975.31 5344.43 5125.78 4373.47 3868.18 5045.38 5350.88 5372.61 5130.91 5402.24 4519.22 6445.22 4564.34 3838.56 4871.44 5076.35 6375.99 5200.05 5273.35 5234.29 5313.66 2651.49 4645.58 5512.23 5275.32 4711.62 5985.29 4247.23 4178.15 4268.65 4694.83 4354.08 5509.42 4520.62 3903.75 4755.47 5935.03 4485.99 5475.8 5314.69 6050.81 5543.46 4788.87 4249.46 5965.81 3702.37 4643.31 2330.66 4177.19 6917.52 4969.21 4880.14 2845.98 4982.31 5289.52 5269.18 5314.85 4305.43 5450.44 4942.77 5080.18 5266.5 4454.63 4523.88 4066.38 3279.1 4978.31 4099.77 4414.48 4981.9 4537.32 5991.09 4656.78 5105.16 4678.38 5448.61 5050.65 4827.33 7055.53 3937.08 5513.57 6133.92 5013.67 5729.23 5669.65 5934.22 3780.23 3471.03 4359.62 5253.55 5011.84 3745.84 6946.21 5433.8 5975.63 5252.34 2965.79 7099.43 5526.14 5315.4 6449.45 3627.82 5262.19 6070.58 6034.41 5452.83 4959.34 4948.5 4527.02 4591.87 4531.14 4247.15 5013.42 5651.07 6248.81 5872.05 4853.02 4091.8 6259.23 5181.4 5670.2 4114.24 5349.31 4649.22 5394.55 4256.43 5094.52 5936.36 4946.74 2682.24 5928.32 5229.48 5475.7 5127.16 4016.18 5435.74 4244.99 5327.45 5560.26 6185.89 3997.96 4750.17 5660.85 3990.25 3691.0 4752.51 3758.07 3587.05 5402.21 6229.37 4989.09 6718.19 4307.48 3848.54 5941.4 5331.02 6510.17 5742.65 4263.33 5592.32 5912.61 4403.98 4948.98 4560.84 5227.52 5163.02 4729.43 4092.24 4562.74 5126.91 3942.07 5133.97 7443.72 5371.02 5260.34 5206.48 6586.45 5826.04 5624.49 3095.48 4861.06 5339.78 4166.08 6481.79 5960.66 3979.26 3999.48 6608.73 5188.81 4203.26 5696.88 6057.22 5690.26 4156.2 5062.71 4497.59 4289.17 5564.02 4274.61 4410.55 6444.77 4287.63 6314.07 5776.37 4516.28 4190.31 5678.96 4244.9 4285.32 5490.43 4986.51 5022.28 5197.52 5178.99 5383.07 4790.78 6422.84 6552.22 5379.09 4602.85 5210.48 4962.77 6101.92 5323.3 5088.44 4998.21 4662.56 3457.48 5166.79 3405.98 3931.07 2976.22 5417.15 3688.16 4681.72 4945.39 5996.33 3950.63 5415.19 4612.62 3619.07 5526.75 4467.04 4275.57 6385.23 2983.99 6363.92 6205.93 4439.35 3460.94 5830.72 6184.4 3828.81 4373.45 4236.14 4407.87 5733.62 5282.51 5282.91 3797.33 4425.84 7256.35 4871.96 4800.69 4863.23 4402.67 5381.16 5565.13 4470.61 6193.35 6086.96 3701.27 5233.78 4806.34 5776.57 7144.24 5683.26 3600.43 5598.74 6600.94 4788.58 4709.35 6155.1 6496.67 5876.71 5226.0 4373.3 5762.59 4750.78 5374.51 5320.28 5224.12 4850.14 4569.12 4298.67 4796.58 5873.69 4962.09 6222.42 5654.31 4730.41 4643.85 4004.04 3923.03 5082.74 5607.14 6915.83 6072.45 4027.46 4470.98 5759.46 3921.08 7055.42 5486.68 6048.86 5100.25 6894.26 5311.03 5339.38 6169.11 5615.35 5172.53 4027.09 4135.62 4502.18 5801.99 5534.94 7552.94 4051.34 3627.55 6239.84 4635.6 4256.67 6079.11 6430.39 7440.72 3949.6 5703.6 6326.18 5661.62 6631.19 6648.68 5626.61 4713.74 5407.78 5817.25 4084.49 2614.4 5061.98 6632.99 4537.6 4923.24 4419.61 7177.44 5309.98 4082.57 5255.18 5169.9 3004.16 4460.92 5945.89 4042.28 4105.55 4340.76 6566.1 3555.86 6065.22 6386.78 4996.99 4631.83 4384.88 6887.27 6008.49 5653.9 5046.21 4906.82 5894.61 5687.83 5131.24 5004.23 5196.67 6442.69 6320.71 5474.8 6262.72 4648.04 5029.78 3664.11 3365.82 4123.6 4163.5 7092.87 4538.95 4970.88 6739.08 7042.12 4471.58 3637.61 5463.38 6098.14 4472.17 5750.71 4938.74 5470.77 3474.39 6062.05 4831.47 4735.33 5411.85 3999.94 5092.37 4844.57 6171.13 4864.22 2395.5 3901.8 5511.88 5083.41 4512.11 6248.6 3836.45 5683.61 5805.86 4049.02 5346.68 4470.4 4611.53 5255.12 4285.66 4896.11 4238.4 4318.48 6132.95 4860.33 3685.13 7644.38 3312.06 6004.68 3361.26 6799.4 4409.63 5865.39 4427.28 3661.9 3082.32 5370.85 5949.46 3658.37 3178.54 4765.02 5376.71 4448.13 5070.29 4807.28 4867.08 2261.36 4266.03 5280.69 5075.55 4220.03 6923.84 5449.46 6179.96 6113.54 5147.36 6260.79 3963.76 4563.46 5528.53 6553.94 5726.66 5460.65 4767.78 5235.17 4779.5 4421.12 4435.36 5254.49 4221.28 4456.39 4896.39 3633.79 6081.14 5480.83 4220.46 4607.85 4287.53 5612.21 4929.14 5945.08 5139.5 7493.3 4814.55 5833.06 3527.05 6607.87 4143.78 6515.84 5965.15 5724.64 4925.63 4763.66 4888.6 4666.81 5078.86 4797.52 4780.2 6326.39 6643.85 6343.14 5501.93 4020.95 5462.21 6313.06 5945.21 6345.13 3493.7 6470.3 4200.03 4719.7 6939.12 5516.95 4406.4 4413.85 3905.51 6853.85 4020.4 3497.9 5941.61 4933.65 6098.1 5708.99 5443.58 4558.46 5687.85 6401.43 5020.71 5296.29 5997.88 2681.29 5094.48 5839.71 3872.61 5576.92 6408.83 3930.79 4004.35 5266.22 5226.97 5754.18 5180.76 3418.99 4480.95 5278.36 6218.95 5521.25 5107.23 5136.08 5558.68 3776.94 4010.57 5629.39 2684.03 6157.04 4768.61 4522.21 5506.19 6719.94 4950.67 5227.59 6166.29 5453.6 5703.07 5294.77 4662.43 4709.05 4043.66 4630.82 4813.08 6799.88 3062.43 5426.78 2967.38 5652.0 4159.35 5463.41 5225.33 4237.98 4929.75 6045.22 4614.3 6649.96 5134.39 4303.19 5514.84 3914.2 4256.57 5421.53 5937.08 6070.3 6000.7 5128.57 5604.21 3979.54 3169.67 4968.03 5304.13 5944.09 5490.58 4863.79 5698.77 3464.83 4702.06 2477.07 5117.47 2990.77 3163.78 4721.32 4305.16 3293.56 5882.65 4918.77 4739.14 5163.55 4636.5 6817.32 4819.73 3382.7 6471.55 5085.71 2965.01 6263.44 4319.79 5960.56 4863.27 5774.97 5122.63 5862.86 6049.79 5374.98 5226.56 5274.19 5599.49 4097.57 5313.22 5017.5 5563.79 5328.22 4151.76 6484.17 3493.47 4721.02 4596.75 4254.37 5782.48 4031.78 3374.08 5564.23 5950.04 4231.83 2435.33 6333.29 4558.47 5731.57 5662.55 5737.92 4360.23 6234.32 5365.24 5293.51 4763.96 4446.06 5008.63 3450.93 4270.74 5132.68 6595.03 4993.35 4983.39 5222.16 5366.52 5533.72 5533.42 4802.32 4599.38 5246.47 4187.31 6191.29 7422.36 5161.01 4298.15 4628.4 5832.37 6051.83 4642.93 5409.63 4263.16 3077.84 6024.75 6109.49 5860.67 4540.86 5990.52 3764.1 4835.83 5604.35 6477.91 3091.67 6439.37 4081.97 5401.99 5580.92 5784.3 3532.3 5769.98 6088.68 3583.21 5442.32 2221.99 4643.56 4135.08 5620.74 4863.01 5233.29 5356.79 4778.82 4312.56 5204.04 4612.06 5467.84 3361.92 4750.58 3306.14 6710.88 5395.14 4923.41 3967.48 4497.31 6213.04 3830.46 6413.11 5092.28 5529.42 5274.14 4434.19 5100.1 4903.82 4940.42 4371.99 3954.91 3703.1 4946.42 5923.4 3295.83 4963.34 5499.39 5644.82 6413.02 3492.19 4118.84 4584.5 6766.43 5548.29 2315.64 5916.16 4703.08 4390.41 4890.5 6113.95 3731.84 3981.07 4050.08 5452.42 4901.07 5186.3 3436.15 5711.11 4216.17 4575.94 4938.72 3546.71 5768.57 4188.87 3735.24 6574.95 4074.48 6817.57 3614.96 4477.04 3886.68 5703.74 4747.55 3056.7 3755.95 5591.76 4585.31 4586.19 6625.18 5323.91 5097.45 6293.89 5737.75 4558.15 2761.07 3778.02 6552.21 4690.55 5417.8 5146.37 7132.12 3678.08 4836.16 5518.57 5151.11 5463.48 3240.51 5730.33 4527.99 5545.46 4543.1 4376.7 5190.61 8325.01 3764.06 4440.81 5941.9 3973.12 6642.76 5829.22 4497.78 5567.93 5987.42 5332.65 4442.22 6451.33 5413.31 6316.56 4332.87 6420.81 4715.58 5208.14 3317.83 4450.7 5151.52 5973.33 4347.74 5291.9 5067.46 3580.58 2511.46 4011.37 5657.36 6124.08 3619.79 5029.47 5053.95 6667.68 5235.11 5211.38 6031.67 5384.76 5257.12 6138.12 4428.78 4965.89 5746.28 5187.7 5659.95 6090.91 4152.85 3561.29 4082.47 4623.61 4219.78 4188.3 4453.64 5081.78 4459.28 5019.93 5235.29 4260.92 6116.33 4479.94 6250.23 4407.9 4440.57 4718.54 6235.57 5412.31 5203.08 3623.87 3087.09 7480.41 5163.77 6934.37 4488.85 3423.15 3554.48 4579.69 6496.52 5005.85 5966.61 4893.49 5325.44 5102.75 5021.88 4597.29 5956.65 4200.09 4498.25 5931.77 5151.21 5108.06 5398.64 3573.73 4693.52 6853.04 3420.08 4745.43 5831.96 5464.68 4539.07 4475.83 2685.81 4510.8 5889.35 5010.04 4394.56 4570.98 4275.07 5825.38 4185.61 4047.87 4573.72 5742.47 4917.99 4367.78 4350.12 5227.02 5670.0 4232.16 5300.96 4344.51 5680.94 3781.77 5581.55 5193.01 6550.44 3474.5 3860.83 5732.27 4523.39 5278.56 5434.47 6917.62 5631.14 4243.79 5811.18 4343.78 5433.65 4008.15 4887.76 4669.06 4811.32 3012.99 4286.49 6400.08 4743.59 5829.32 4396.25 3763.05 5092.24 5369.08 3101.75 4518.04 4766.06 4009.62 4874.18 2081.58 6505.78 2775.69 4785.25 6519.43 4270.15 5876.64 6306.21 5424.46 5926.11 5266.01 5253.37 5767.9 2978.76 2040.66 6622.11 6515.8 4689.15 3685.13 6790.73 5243.43 4655.16 4741.26 5920.32 5409.66 4537.14 4186.6 5551.9 5251.4 4345.67 5511.6 3885.86 6261.75 4517.73 5177.64 4338.08 4752.14 5660.16 4255.31 4541.8 6134.99 5453.3 3838.47 2588.37 4062.5 5887.15 6736.03 4435.51 5374.07 8659.64 4588.7 3766.55 5683.95 6027.62 5469.13 5010.2 5765.42 6123.03 6098.95 4997.83 3991.42 4388.63 4834.87 2216.82 3672.21 5760.22 5938.17 4795.43 5097.95 4914.45 4222.4 4698.87 4000.43 4661.03 4568.41 3624.7 4912.04 5262.35 4691.91 4255.34 5064.79 5480.3 7509.24 5896.26 5388.78 6101.13 5099.21 5599.7 4163.74 6969.28 5636.4 3665.95 5698.96 4095.75 3603.51 4298.45 5222.51 6609.84 5135.96 3834.43 5658.37 4707.06 6074.94 5491.37 4250.88 6348.03 3783.54 3475.67 4792.39 7038.89 5146.37 3863.67 4814.12 4013.38 5067.56 6137.8 3352.35 2735.53 5263.3 4909.65 3747.03 6523.86 7693.4 4326.48 4437.07 6184.88 3449.37 5491.9 6405.0 5551.95 4659.16 3918.87 5549.49 4633.05 5423.42 6605.86 5012.5 5435.19 5461.55 3562.79 3298.2 6865.76 6449.64 4857.84 4908.49 7016.27 5884.9 5089.62 3468.42 3685.65 4590.55 4673.35 3876.21 5869.4 4916.22 3701.16 5297.19 6022.7 4255.85 3867.19 4765.72 5097.69 3988.3 5857.79 2908.7 3757.34 4039.91 6415.61 4378.3 5276.7 4687.64 4419.71 5411.02 4950.97 4989.56 5037.06 5175.29 5842.56 4094.73 5199.44 5191.08 5424.88 5415.85 7234.66 6599.66 4055.54 6419.12 4233.8 4976.12 4817.16 5453.98 5148.08 3718.69 6192.0 4514.79 4940.28 4509.89 6752.75 5269.38 3004.34 3022.6 5607.3 2928.82 4811.76 5313.12 5351.56 3984.88 5318.53 5160.59 4732.09 4281.98 4320.42 7165.9 5344.83 7046.11 3427.63 4146.81 6342.48 5756.75 4587.67 5951.81 3924.14 6918.35 4296.69 6238.32 3319.67 6471.42 5283.8 4076.59 5164.1 4428.14 6464.15 4479.11 4972.17 6685.4 5699.53 4222.77 6332.01 5268.38 5527.23 4805.33 5980.95 6193.08 6069.3 5887.01 5116.6 5168.35 5388.39 2783.85 4356.49 4526.81 5335.47 3994.07 4219.94 5907.46 6740.71 4264.91 5399.29 5789.55 2275.45 5971.22 4901.2 6522.59 5711.62 4383.56 4990.79 7093.13 4953.1 4516.53 5818.95 4093.99 3940.49 4962.21 6464.8 4749.59 4684.44 4680.94 4858.44 5799.69 5571.72 5689.26 3809.69 4771.13 4992.42 7051.9 4940.84 5895.77 4608.41 4184.23 4732.09 4833.46 5750.07 6136.49 6543.13 4642.66 5149.72 5036.58 5469.47 5329.59 4888.12 6119.63 5464.25 3498.16 5439.9 4244.21 4752.9 5512.16 3197.63 4287.16 3645.12 4617.55 4863.96 3456.47 5471.74 6200.54 5148.58 4199.45 5421.64 4858.51 4207.54 4886.12 3375.28 5625.65 4301.61 6107.89 3184.64 5206.33 4446.84 5660.55 5530.49 5065.26 5653.03 4304.41 5578.94 7610.49 5885.28 4286.17 6579.31 5323.55 5375.1 3804.5 4172.6 5498.42 4196.37 3344.57 6448.66 5220.76 6945.98 5138.2 5783.48 4701.5 4449.98 4504.35 4863.97 4771.65 4840.44 5093.82 6639.64 5212.43 5454.12 4834.3 6348.54 6804.79 6372.13 5369.5 5404.01 6016.19 4124.49 3230.13 5714.25 5325.96 4850.06 5016.02 7044.29 4234.18 7085.01 4049.16 3936.95 6153.94 6836.82 3862.77 4631.99 3185.39 4740.98 5128.77 3728.18 5633.61 5048.19 4243.26 6799.23 4888.27 4592.15 6487.56 4854.11 4998.22 5533.19 4909.31 5417.21 6602.43 4798.17 3568.28 5425.98 5166.79 2895.63 6479.39 4122.92 4997.91 5079.22 4599.81 3604.14 5381.54 4452.54 4406.05 5828.35 5089.1 4028.32 5876.72 5236.43 3208.96 5285.07 3858.06 4680.14 4144.57 4351.38 5550.75 5933.7 4809.67 4757.74 4356.25 5776.96 6045.67 4216.95 4209.49 5742.74 3946.28 3821.94 5984.81 4209.31 5486.48 5301.47 4409.27 5367.73 4947.24 4640.06 4588.99 3875.05 4321.21 3540.11 5950.45 4344.34 5713.03 4652.01 5849.65 3548.39 3583.49 3673.28 5052.84 4366.74 5297.16 4165.21 4603.5 4936.96 4647.67 4481.76 5375.12 5452.78 4356.36 4892.44 6789.23 3989.7 4157.29 4777.03 4246.61 3684.56 6028.09 5327.75 5452.36 4609.02 6486.37 4638.18 5211.6 3556.79 5806.31 4453.97 3503.41 7317.04 6412.67 7001.83 5012.97 5589.37 5439.49 3687.65 5216.26 4887.52 5478.95 3851.85 4066.57 5642.35 4206.98 5156.76 6357.47 4891.38 6101.57 5535.91 2949.12 5955.86 4532.89 6176.67 4533.37 4848.46 5412.24 2779.99 4581.37 4920.21 6942.34 5851.61 5478.11 5526.31 3858.17 5030.15 3477.1 3644.78 4078.93 5934.82 4501.78 7122.87 3572.94 5797.36 5001.58 4153.84 5119.86 5089.26 5084.17 4901.44 3776.8 5096.43 6156.21 6104.26 5583.61 6063.64 5996.66 4986.71 7382.3 4405.42 2995.67 4022.56 3598.08 5522.21 5698.23 5810.77 2711.19 4714.83 5474.15 7519.2 4884.59 4099.92 5217.95 6355.68 4478.6 4083.79 4511.7 4187.94 5980.59 4304.63 6834.41 5021.77 7248.4 6226.14 5466.33 5280.12 4801.8 7216.98 4444.97 3000.29 5046.12 5721.05 5271.02 7013.17 4247.69 3805.67 5718.28 4514.39 6242.79 6506.86 5088.57 5580.34 4928.27 3852.6 5134.67 5775.31 3332.49 4706.5 4215.0 5354.66 3566.79 4214.44 3629.44 5378.23 4787.97 5374.67 3746.36 4981.43 4741.28 4215.2 5069.89 2856.55 5107.0 6212.15 6813.72 4783.07 4946.23 4896.65 6083.28 6100.73 4745.79 5456.71 4908.75 3971.08 6204.65 4482.9 4593.7 4349.13 4036.91 4891.67 5110.11 6379.14 3634.5 6631.28 6571.31 4392.65 6318.23 4058.87 5174.75 5932.07 4984.46 5948.71 4793.65 3856.53 5460.89 6040.74 5260.85 5742.09 2884.65 5887.38 5807.46 4648.21 4393.16 3658.05 4549.69 3311.29 6423.81 6192.77 4312.15 6418.11 6015.02 4922.49 5585.14 7039.98 4820.17 4729.42 5244.98 3886.72 5415.45 6592.93 6350.71 6436.74 2460.79 4456.11 4653.83 6171.71 3628.89 4668.88 5027.43 3772.3 4855.01 7300.58 3608.06 6208.9 4923.57 3340.09 6633.61 6061.63 4867.7 2279.05 5484.36 4829.35 3953.55 4075.28 4063.9 4469.54 5263.27 4314.56 6300.92 3796.15 5161.1 3928.53 4173.54 5599.29 5606.51 5740.65 6038.68 3834.47 5067.56 2596.96 4807.4 6329.53 4350.15 4590.01 4139.3 6541.45 4601.74 6101.86 4263.78 4227.41 475