# vtk DataFile Version 2.0
Time step 51
ASCII
DATASET UNSTRUCTURED_GRID
POINTS 5000 float
202705.0 295616.0 0
207628.0 293792.0 0
213157.0 294919.0 0
231916.0 295900.0 0
279050.0 295533.0 0
291264.0 295469.0 0
297464.0 293602.0 0
202414.0 300650.0 0
206556.0 298099.0 0
209446.0 297011.0 0
211318.0 300105.0 0
217042.0 299183.0 0
221894.0 297021.0 0
228430.0 298068.0 0
224760.0 300507.0 0
232564.0 299205.0 0
237226.0 297758.0 0
242617.0 299915.0 0
249271.0 300392.0 0
255576.0 299746.0 0
260753.0 301354.0 0
266877.0 299494.0 0
271772.0 296746.0 0
271169.0 301258.0 0
275652.0 300693.0 0
281069.0 301211.0 0
286163.0 298538.0 0
292189.0 300998.0 0
297174.0 298880.0 0
203008.0 305904.0 0
207002.0 302406.0 0
210072.0 306463.0 0
214581.0 303853.0 0
220829.0 303307.0 0
226036.0 304655.0 0
230159.0 302486.0 0
231944.0 306473.0 0
235094.0 302888.0 0
244927.0 305001.0 0
239921.0 304642.0 0
249303.0 305916.0 0
253185.0 304858.0 0
257389.0 304098.0 0
264337.0 303625.0 0
260979.0 306213.0 0
268635.0 304360.0 0
273370.0 305448.0 0
278069.0 304991.0 0
284718.0 303597.0 0
281994.0 305264.0 0
288210.0 303000.0 0
288977.0 306416.0 0
296669.0 304936.0 0
201914.0 310460.0 0
206466.0 310083.0 0
213654.0 310361.0 0
217672.0 307339.0 0
218323.0 311620.0 0
222655.0 308886.0 0
228157.0 309339.0 0
232751.0 310643.0 0
236297.0 307909.0 0
241319.0 309957.0 0
246985.0 309485.0 0
251921.0 309234.0 0
256799.0 308819.0 0
261102.0 310491.0 0
265496.0 308425.0 0
270119.0 308225.0 0
268787.0 311727.0 0
273104.0 311383.0 0
276428.0 308740.0 0
280620.0 308815.0 0
285177.0 307696.0 0
289128.0 310719.0 0
292413.0 307678.0 0
203766.0 314401.0 0
209853.0 314751.0 0
216149.0 316545.0 0
222201.0 314663.0 0
225878.0 312745.0 0
229346.0 314142.0 0
233295.0 314227.0 0
236714.0 312384.0 0
236025.0 316560.0 0
240354.0 315770.0 0
245010.0 313921.0 0
249872.0 313476.0 0
254600.0 313258.0 0
259139.0 314441.0 0
264697.0 314566.0 0
269461.0 316806.0 0
270683.0 314149.0 0
273492.0 316040.0 0
278119.0 313575.0 0
283944.0 312784.0 0
288053.0 314796.0 0
291548.0 314245.0 0
296214.0 311964.0 0
202023.0 318349.0 0
206288.0 319268.0 0
211607.0 320469.0 0
221220.0 319902.0 0
226393.0 318302.0 0
232047.0 318594.0 0
237473.0 321544.0 0
244091.0 317726.0 0
242050.0 319788.0 0
246632.0 321548.0 0
247799.0 317935.0 0
252293.0 317518.0 0
254799.0 321070.0 0
256168.0 317203.0 0
260010.0 319757.0 0
266156.0 320944.0 0
271949.0 320178.0 0
277539.0 319776.0 0
281950.0 317070.0 0
282751.0 321016.0 0
286009.0 318247.0 0
290298.0 317566.0 0
286457.0 322060.0 0
290568.0 321315.0 0
293693.0 316863.0 0
294407.0 320296.0 0
297552.0 317770.0 0
202046.0 322064.0 0
202312.0 325976.0 0
207322.0 324423.0 0
213127.0 325767.0 0
216669.0 322222.0 0
220602.0 324493.0 0
229312.0 322105.0 0
225143.0 323662.0 0
232780.0 322837.0 0
230318.0 325632.0 0
234446.0 326541.0 0
243215.0 323642.0 0
247817.0 324798.0 0
250507.0 321826.0 0
253084.0 325700.0 0
257459.0 324231.0 0
261972.0 325257.0 0
266391.0 326640.0 0
270339.0 324425.0 0
274428.0 324127.0 0
280493.0 323521.0 0
277885.0 324485.0 0
276564.0 326922.0 0
279754.0 326872.0 0
283852.0 325348.0 0
288879.0 325264.0 0
294087.0 324771.0 0
297854.0 322068.0 0
298377.0 325619.0 0
201929.0 329791.0 0
205514.0 329223.0 0
209568.0 328677.0 0
213143.0 330890.0 0
218372.0 329098.0 0
223003.0 327545.0 0
223444.0 331863.0 0
227134.0 328498.0 0
231522.0 330361.0 0
239637.0 327394.0 0
235946.0 331349.0 0
240549.0 332220.0 0
245085.0 328356.0 0
249501.0 327976.0 0
248417.0 332068.0 0
252943.0 330939.0 0
257785.0 329190.0 0
263383.0 330423.0 0
269538.0 327665.0 0
268434.0 331444.0 0
273118.0 328588.0 0
277389.0 330818.0 0
282298.0 330263.0 0
286606.0 328872.0 0
291384.0 328951.0 0
295464.0 329073.0 0
298504.0 328492.0 0
297886.0 331867.0 0
201651.0 332792.0 0
202330.0 336206.0 0
204591.0 333222.0 0
208584.0 333014.0 0
205748.0 336983.0 0
212497.0 334866.0 0
216743.0 334678.0 0
221440.0 335917.0 0
228025.0 333226.0 0
226197.0 337380.0 0
232675.0 336111.0 0
237910.0 335496.0 0
244468.0 332871.0 0
242450.0 337099.0 0
246686.0 335610.0 0
251188.0 336546.0 0
256360.0 334814.0 0
260211.0 333037.0 0
261029.0 337014.0 0
265051.0 334885.0 0
269391.0 336344.0 0
273006.0 333276.0 0
280290.0 334720.0 0
276351.0 335251.0 0
284215.0 334100.0 0
288614.0 332874.0 0
286432.0 337020.0 0
290306.0 337211.0 0
293799.0 333128.0 0
297843.0 335692.0 0
202712.0 340393.0 0
206926.0 341033.0 0
209653.0 337764.0 0
213520.0 337906.0 0
211668.0 341722.0 0
216819.0 339760.0 0
221788.0 340665.0 0
226411.0 342638.0 0
229787.0 340180.0 0
233305.0 341419.0 0
237771.0 340421.0 0
242656.0 342065.0 0
246622.0 339203.0 0
250475.0 342015.0 0
256070.0 341222.0 0
261373.0 341724.0 0
265692.0 339871.0 0
270043.0 341227.0 0
273525.0 338468.0 0
278176.0 339357.0 0
282901.0 338700.0 0
287005.0 340496.0 0
294499.0 337262.0 0
292067.0 341900.0 0
297307.0 340374.0 0
201734.0 343942.0 0
202577.0 347385.0 0
205054.0 344153.0 0
208570.0 344510.0 0
213274.0 345315.0 0
214860.0 342819.0 0
217855.0 344731.0 0
222683.0 345908.0 0
226806.0 347232.0 0
230578.0 344653.0 0
235468.0 344954.0 0
239694.0 345548.0 0
244478.0 347024.0 0
246570.0 343148.0 0
249180.0 346658.0 0
252922.0 345700.0 0
259892.0 345416.0 0
264206.0 345022.0 0
268770.0 345731.0 0
273788.0 343710.0 0
278515.0 343851.0 0
283325.0 343682.0 0
280367.0 347207.0 0
288081.0 344734.0 0
291961.0 346884.0 0
296480.0 345817.0 0
203003.0 351671.0 0
206496.0 347428.0 0
207966.0 351153.0 0
210566.0 347633.0 0
212607.0 351467.0 0
214962.0 348423.0 0
216476.0 351650.0 0
219076.0 349337.0 0
223317.0 350538.0 0
227393.0 351975.0 0
229660.0 348779.0 0
233108.0 348496.0 0
231880.0 353046.0 0
237276.0 350545.0 0
241207.0 349361.0 0
241259.0 352527.0 0
244132.0 351649.0 0
247768.0 350835.0 0
251853.0 350436.0 0
256517.0 348491.0 0
259279.0 352661.0 0
261543.0 349121.0 0
265384.0 349043.0 0
268320.0 351052.0 0
272217.0 348969.0 0
276428.0 348268.0 0
282734.0 348478.0 0
279729.0 351761.0 0
285029.0 352579.0 0
285497.0 347827.0 0
289206.0 349656.0 0
293414.0 350467.0 0
297449.0 350536.0 0
202581.0 356342.0 0
206295.0 355508.0 0
210669.0 355545.0 0
215708.0 355763.0 0
219859.0 353267.0 0
223634.0 355121.0 0
220335.0 357538.0 0
227757.0 356394.0 0
231825.0 358099.0 0
235858.0 355703.0 0
239936.0 355428.0 0
243504.0 355141.0 0
246559.0 354135.0 0
249971.0 354756.0 0
254890.0 354864.0 0
259597.0 356822.0 0
263763.0 353751.0 0
267787.0 354601.0 0
266138.0 357905.0 0
269992.0 357488.0 0
271599.0 353754.0 0
274323.0 357235.0 0
275220.0 352785.0 0
277375.0 355308.0 0
281326.0 356244.0 0
290458.0 354356.0 0
296277.0 355207.0 0
202766.0 360288.0 0
207621.0 359541.0 0
210013.0 362477.0 0
212096.0 359703.0 0
216532.0 360544.0 0
224427.0 359164.0 0
221154.0 361851.0 0
228179.0 361121.0 0
235372.0 360214.0 0
238516.0 359368.0 0
242308.0 358889.0 0
240493.0 362721.0 0
244587.0 362574.0 0
246701.0 358307.0 0
251472.0 359869.0 0
256463.0 360151.0 0
262673.0 358309.0 0
260294.0 361516.0 0
264472.0 362054.0 0
268108.0 360726.0 0
271714.0 360754.0 0
275338.0 361776.0 0
278085.0 358873.0 0
279810.0 362299.0 0
281979.0 359658.0 0
284076.0 362623.0 0
286158.0 357890.0 0
288497.0 361316.0 0
291851.0 358535.0 0
292471.0 362407.0 0
297038.0 359882.0 0
197272.0 365134.0 0
201969.0 366035.0 0
201518.0 363450.0 0
204902.0 366972.0 0
207680.0 367240.0 0
205952.0 363667.0 0
213514.0 363197.0 0
210557.0 365984.0 0
214809.0 366604.0 0
217763.0 364524.0 0
221622.0 366307.0 0
224851.0 363774.0 0
225159.0 367915.0 0
228846.0 365916.0 0
232767.0 363479.0 0
237183.0 363306.0 0
236051.0 367010.0 0
239506.0 366280.0 0
242700.0 365610.0 0
248020.0 363049.0 0
246139.0 366778.0 0
254210.0 363696.0 0
250781.0 365865.0 0
255041.0 367179.0 0
257444.0 364487.0 0
258490.0 368140.0 0
260817.0 365514.0 0
264091.0 366322.0 0
268446.0 364670.0 0
272031.0 363696.0 0
273606.0 365737.0 0
277440.0 365591.0 0
281448.0 366046.0 0
284844.0 366294.0 0
288271.0 365141.0 0
292071.0 366718.0 0
296710.0 364345.0 0
202701.0 369770.0 0
206512.0 370061.0 0
210084.0 370696.0 0
213662.0 369722.0 0
218502.0 368679.0 0
216544.0 371764.0 0
219795.0 372946.0 0
222242.0 370374.0 0
228954.0 370110.0 0
225894.0 372444.0 0
232497.0 368260.0 0
231771.0 372115.0 0
235092.0 371560.0 0
238674.0 370217.0 0
242262.0 368845.0 0
241218.0 373221.0 0
245084.0 371376.0 0
248673.0 369949.0 0
252524.0 369767.0 0
250560.0 373167.0 0
253641.0 372817.0 0
255961.0 370777.0 0
259132.0 371820.0 0
262070.0 370047.0 0
266412.0 369215.0 0
268818.0 371933.0 0
270772.0 368502.0 0
274892.0 369467.0 0
278870.0 369565.0 0
283317.0 369757.0 0
280781.0 373650.0 0
287650.0 368945.0 0
286121.0 372211.0 0
293673.0 369213.0 0
294051.0 372452.0 0
290790.0 370958.0 0
296922.0 368534.0 0
297709.0 372153.0 0
194768.0 380581.0 0
200578.0 377246.0 0
197947.0 379870.0 0
202106.0 373299.0 0
203572.0 375981.0 0
205566.0 373294.0 0
202946.0 379205.0 0
206203.0 377321.0 0
208476.0 374293.0 0
209342.0 378097.0 0
211610.0 375029.0 0
213433.0 373229.0 0
216364.0 375930.0 0
220015.0 376338.0 0
222838.0 374862.0 0
222267.0 378380.0 0
229440.0 374476.0 0
226419.0 377098.0 0
229807.0 377524.0 0
231989.0 378981.0 0
233048.0 375570.0 0
237432.0 375218.0 0
240543.0 376892.0 0
244086.0 375931.0 0
246991.0 377577.0 0
247477.0 374278.0 0
249898.0 377116.0 0
252740.0 375866.0 0
256685.0 375531.0 0
261175.0 375395.0 0
264979.0 373745.0 0
266028.0 377619.0 0
268948.0 375415.0 0
272354.0 373047.0 0
269592.0 378676.0 0
272993.0 377187.0 0
276385.0 373250.0 0
277028.0 377196.0 0
284402.0 374230.0 0
280537.0 377874.0 0
283365.0 377209.0 0
288540.0 373932.0 0
286535.0 376660.0 0
291136.0 375829.0 0
294539.0 376208.0 0
298070.0 374997.0 0
299679.0 376675.0 0
301187.0 378749.0 0
303765.0 379664.0 0
298014.0 379236.0 0
189439.0 384196.0 0
186232.0 385994.0 0
192468.0 383045.0 0
195761.0 384072.0 0
200608.0 381940.0 0
198179.0 385246.0 0
204863.0 380562.0 0
203396.0 383976.0 0
206623.0 384443.0 0
207093.0 380825.0 0
210538.0 382387.0 0
213364.0 378683.0 0
215892.0 381872.0 0
213363.0 384597.0 0
218734.0 379504.0 0
[...]
POINT_DATA 5000
SCALARS Radius float 1
LOOKUP_TABLE default
5415.48 5120.0 6182.6 3163.97 6810.52 5840.26 5073.35 4834.9 3863.18 2356.98 4998.37 5492.18 5258.36 5061.3 3951.75 3642.12 5812.43 5906.14 7513.1 5254.28 4436.4 5733.48 5580.89 3588.44 5645.7 5553.16 6110.27 5561.06 5670.04 6044.04 5085.53 5484.83 5351.6 5867.73 5013.56 4499.64 4375.68 5542.27 5484.19 5122.66 3557.27 4688.68 4402.52 4182.53 4517.56 4672.91 5176.86 4366.19 3672.51 2938.66 4008.92 3615.22 6716.79 3850.77 5325.36 5538.89 4715.55 4730.36 6059.59 5701.86 4238.81 5054.98 6030.06 5170.02 4927.31 5185.34 4432.58 5903.42 3761.32 3955.56 5292.64 4118.05 5065.13 4940.78 5305.17 4380.59 5546.39 6759.9 7021.47 5926.61 2720.68 4955.55 3563.63 4468.59 4345.55 5885.03 5325.02 5200.76 4862.64 5205.43 6684.56 3968.64 2635.86 4385.06 6166.5 5936.02 4231.61 3379.84 7613.27 4133.88 5945.65 5418.62 5416.38 6051.14 5836.15 6704.06 2837.58 3653.41 3871.88 5246.2 5017.13 4827.23 3673.74 6116.18 7447.37 4688.67 7184.19 4290.3 3867.67 4861.08 3942.53 4003.05 4827.82 3607.45 3589.27 4951.03 4094.62 4665.12 6483.19 6230.49 5493.32 4601.27 4195.44 5740.68 3261.21 4277.89 5539.32 5600.93 3856.01 4390.66 5279.39 4911.47 5803.39 4381.97 4924.6 4733.32 2924.37 2899.43 2812.98 4065.69 5399.73 4805.87 5759.91 4333.2 3260.67 3936.02 4927.02 4174.52 5109.54 7054.71 3641.64 5489.43 5747.75 4796.33 6496.85 5360.19 4874.39 5541.59 4124.71 5083.08 5728.85 6337.56 5863.59 3255.82 6257.19 5242.73 5603.15 5390.22 4712.33 5227.21 3997.1 3038.33 4295.38 3383.4 4780.03 3856.1 5980.74 4044.71 3829.13 6458.82 5527.54 5054.25 5573.7 7325.81 4794.96 4839.34 6186.19 2980.99 6834.49 5525.39 3998.5 5938.34 4024.3 5555.28 4737.14 4695.45 4686.65 4660.72 6038.78 3888.21 5697.78 5123.52 4392.68 5495.39 4487.31 5816.2 3091.3 5693.81 5789.98 6138.47 5697.4 4727.62 4055.8 6425.26 5143.58 4840.01 5611.2 7933.0 5173.87 6394.38 5118.27 5169.36 5834.74 5556.96 3921.18 4667.36 6902.81 5529.52 3554.9 5252.48 3996.0 4002.16 4138.16 2540.31 6029.66 6302.8 4270.95 5206.78 5280.17 5028.96 6362.12 4484.76 5152.36 4220.65 4455.12 5380.13 5711.87 5932.23 5788.23 6052.7 3798.62 5891.05 4091.31 7199.21 6124.89 4015.92 5708.81 4778.34 5043.05 4684.5 3486.22 5120.49 5409.61 6038.2 4005.44 5555.88 5713.22 6732.43 3866.16 3183.98 4524.28 4511.82 5826.64 6820.42 4816.2 4894.16 4896.52 4941.22 5791.61 5581.75 3666.57 6392.01 6644.76 4254.17 5615.42 4523.7 5255.32 5337.48 5542.21 5924.89 6894.71 4414.54 5262.61 5201.36 5094.81 5972.06 5861.71 5017.78 3794.63 3778.1 4727.24 6959.81 4829.35 6321.41 3372.79 4751.02 5184.56 5282.64 4715.72 4479.66 3369.13 5308.1 6372.62 7565.34 5637.59 5481.78 3307.12 4937.14 5551.36 4306.53 6038.14 6135.57 4312.67 4359.04 5015.69 4989.15 4947.52 6175.81 6677.09 5813.4 4089.76 5201.67 5526.55 3192.41 4987.87 4669.66 5367.2 4808.52 3043.85 5461.13 6730.19 4907.89 4937.02 5629.19 6037.08 4929.8 4049.23 3103.0 3586.91 3115.91 6084.86 4467.94 5478.92 4933.21 4850.81 4723.12 5024.9 4717.05 5659.17 5998.38 4270.24 5423.8 3417.33 4164.13 4520.1 4642.34 4305.57 5874.89 4293.03 3791.79 4424.7 4754.05 4951.47 6084.93 3315.57 4764.96 5607.24 4726.76 3599.45 5655.21 5091.39 6756.95 5601.05 4948.92 5810.84 5094.44 5375.47 4655.49 4566.18 4809.42 5287.2 5856.11 4562.29 4234.94 5013.13 5080.66 4926.42 5110.45 5248.77 5153.74 4165.81 4528.09 3556.85 4389.21 4128.98 4925.44 5246.61 4307.28 5215.15 5046.33 5053.92 5839.13 6352.26 5090.24 4073.93 2240.39 5096.78 5923.5 6324.23 4727.24 4151.94 4651.28 6355.42 4382.74 4384.42 4516.43 4362.19 4493.48 4749.8 5082.6 4230.54 3748.24 6163.38 3459.9 4964.09 4093.08 4109.88 5543.27 3327.49 3960.8 4980.85 5714.58 3329.99 5208.32 3296.27 4083.97 4607.02 3895.51 6291.51 5882.89 6246.22 4188.32 4100.38 5804.71 4739.42 5538.93 5020.12 5727.3 3735.44 4242.52 3847.38 4786.6 4907.06 4645.41 5740.84 4612.68 3320.52 5293.9 4129.43 4973.83 4685.34 4329.05 5927.43 5492.26 5690.56 5244.78 3693.63 5762.84 5478.47 3937.74 6142.37 6061.47 5806.08 3982.23 4997.27 5628.24 4449.22 5992.26 5070.39 4923.9 4973.78 4613.31 3947.47 5091.68 4713.25 6243.0 4204.84 6673.96 5174.89 5370.52 4288.3 4652.29 5774.81 3697.96 4899.11 4745.45 5356.51 3057.03 5163.9 5495.68 4433.59 6043.3 5530.87 6445.94 3912.37 4310.18 4320.28 6142.94 6342.25 4281.49 3843.58 4792.73 4931.38 4736.58 5110.37 6082.81 3191.99 6327.9 4220.88 6640.13 5210.03 5351.39 5119.37 4336.42 5243.29 4853.39 3130.65 5365.89 5004.67 5409.33 4511.54 5196.0 6119.09 4733.04 7531.29 5069.25 5048.89 3991.03 5441.96 3161.47 3435.9 6826.57 4495.87 3746.31 5344.77 4723.48 5027.98 4278.07 5097.87 5281.28 2631.9 7267.18 3818.59 4087.15 4863.72 5489.34 5708.14 5952.75 4262.82 5537.72 6332.36 4218.06 5542.14 4931.53 6691.39 7134.64 4602.25 4270.53 4194.5 5379.87 4501.51 5513.6 4556.36 4901.41 5264.06 3485.26 3240.09 3369.23 5664.98 4659.59 3688.8 4548.16 4048.37 5449.18 5367.52 6519.71 4322.15 4714.54 3092.35 3629.96 3320.11 5507.24 6022.17 6851.54 4583.31 4503.89 4306.11 3402.32 7589.94 5903.66 4528.49 5419.37 4466.03 5985.29 4898.94 4178.15 4247.23 5788.66 4694.83 4520.62 3903.75 4755.47 5935.03 6390.78 4485.99 7435.25 5543.46 4788.87 5498.32 5346.27 6475.1 2691.29 6255.18 4143.08 4758.21 5002.48 7500.97 6623.85 3920.42 5102.36 8332.24 5480.13 6122.55 2739.94 4790.08 5978.9 4187.56 5191.63 5082.47 4840.84 5344.25 5344.0 4043.57 4478.15 5925.6 6013.14 3708.04 4602.86 5138.31 4551.24 4621.75 5358.59 3610.4 6387.01 4515.71 6202.55 5025.39 5030.91 5893.5 4377.07 5101.59 3813.22 5570.3 5935.47 5234.29 5313.66 5512.23 5275.32 4649.22 4268.65 5509.42 4354.08 5936.36 5229.48 5475.7 5475.8 5127.16 5314.69 6050.81 4249.46 6022.72 4643.31 5527.33 2330.66 6917.52 4969.21 6256.02 4277.88 7228.46 3948.23 5228.18 5787.31 4342.9 6155.31 6308.71 3629.62 4997.27 4716.19 5135.69 4301.06 3456.98 4593.7 6045.46 4290.14 4763.45 4150.99 5198.77 5681.38 3771.48 5147.67 4138.42 4292.06 5987.17 3979.82 5006.58 5011.31 2765.2 4581.13 5586.81 4746.52 4219.07 3856.59 5413.79 6338.89 5584.06 7111.16 3817.13 5023.15 4547.19 3844.9 3695.36 3963.86 3848.93 5076.35 6020.48 5273.35 5200.05 4091.8 4645.58 2651.49 5670.2 4711.62 4114.24 5349.31 2976.22 5394.55 5094.52 4256.43 2682.24 5928.32 5415.19 4016.18 4612.62 5526.75 5435.74 4244.99 5327.45 5560.26 5965.81 6185.89 4750.17 3702.37 5660.85 4177.19 3691.0 3990.25 5402.21 4752.51 4989.09 4668.71 4880.14 2845.98 5320.92 5269.18 6362.14 4406.1 6719.88 5034.59 5065.11 5978.82 3927.99 4553.56 5069.84 4051.44 4223.33 5911.67 5329.64 3323.28 6695.82 5514.76 6405.76 5835.78 4877.67 4020.32 3815.26 5445.87 4704.72 4245.72 4216.92 4571.7 4177.94 4742.68 5922.5 3929.19 4107.03 4271.69 3970.25 4138.46 4850.01 5643.58 5215.05 5577.04 4481.53 6318.18 3948.17 5077.33 5330.45 5572.95 3689.45 6723.16 5372.61 3686.21 5402.24 6480.17 4519.22 6445.22 4564.34 3838.56 4871.44 6248.81 6375.99 4853.02 6259.23 5181.4 3457.48 4662.56 5166.79 3405.98 3931.07 5417.15 3688.16 4681.72 4946.74 5996.33 3950.63 6631.19 3619.07 4467.04 4275.57 6385.23 2614.4 2983.99 6363.92 3997.96 4439.35 3460.94 6184.4 3758.07 3587.05 4982.31 6229.37 5289.52 5314.85 3848.54 4305.43 4942.77 5450.44 5080.18 5868.82 5266.5 4050.9 4066.38 6049.55 5709.62 5941.72 3498.2 5794.24 6562.18 5908.1 4541.21 4344.58 6048.7 5634.83 5896.46 5495.84 6268.1 5113.21 4502.5 5499.11 4374.35 5347.48 3633.87 2775.04 4810.12 6898.19 3821.72 6035.6 4986.77 5137.34 5198.29 3975.31 5423.0 5344.43 3824.16 5125.78 5045.38 3868.18 5350.88 5130.91 4948.5 5383.07 4527.02 4531.14 5013.42 5651.07 4962.77 5872.05 5323.3 5088.44 4635.6 4998.21 4256.67 6079.11 6430.39 7440.72 3949.6 4945.39 5703.6 6326.18 5661.62 4867.08 6648.68 4713.74 5626.61 5817.25 5061.98 6205.93 5830.72 3828.81 4373.45 5309.98 6718.19 4236.14 4307.48 4407.87 5282.91 5941.4 5331.02 6510.17 4263.33 4871.96 4454.63 5742.65 5592.32 4523.88 3279.1 5912.61 4241.89 5054.74 4978.31 4099.77 4981.9 4414.48 4127.74 4537.32 5163.02 4656.78 3066.13 4302.5 2476.04 5105.16 4156.38 6009.88 6006.16 4164.68 5316.75 5050.65 5022.8 3784.5 6133.92 3719.84 4178.4 5782.6 7034.11 4862.21 6261.42 4011.77 4527.08 5965.78 6396.74 7099.43 5315.4 5526.14 6449.45 4044.45 3627.82 5262.19 6070.58 4373.47 6034.41 5452.83 4959.34 5178.99 4790.78 4247.15 4591.87 6552.22 4602.85 5379.09 5210.48 7552.94 6101.92 4051.34 3627.55 6239.84 5865.39 4427.28 3082.32 5370.85 3658.37 4765.02 3178.54 5376.71 5629.39 4448.13 5070.29 4807.28 4266.03 5075.55 5280.69 4220.03 5407.78 6923.84 5449.46 4084.49 6179.96 6632.99 4537.6 4923.24 5147.36 4419.61 7177.44 4563.46 4082.57 5733.62 5169.9 4425.84 5282.51 3004.16 3797.33 7256.35 4800.69 4863.23 4402.67 5381.16 4403.98 5565.13 4948.98 4560.84 5227.52 6086.96 4729.43 5991.09 4092.24 4678.38 5126.91 3942.07 5448.61 7443.72 4827.33 3937.08 7055.53 5513.57 5013.67 5669.65 5729.23 5934.22 3780.23 3471.03 4359.62 5253.55 5820.48 6057.22 6946.21 2586.12 5433.8 6125.34 5975.63 5252.34 2965.79 4410.55 4287.63 5776.37 4516.28 5678.96 4244.9 6048.86 4285.32 5490.43 6894.26 4986.51 5022.28 5339.38 5197.52 6169.11 5615.35 4027.09 6422.84 4135.62 5801.99 4502.18 5534.94 7644.38 6004.68 6799.4 4409.63 5521.25 3661.9 5107.23 5949.46 5136.08 5558.68 3776.94 4010.57 2684.03 6157.04 4768.61 2261.36 4522.21 5506.19 6719.94 5227.59 4950.67 6166.29 5703.07 6113.54 4662.43 6260.79 4043.66 3963.76 5528.53 6553.94 5255.18 5726.66 5460.65 4460.92 4767.78 5945.89 4105.55 4042.28 4340.76 3555.86 6566.1 6065.22 6386.78 4996.99 4470.61 6193.35 3701.27 5233.78 4562.74 4806.34 5776.57 7144.24 5133.97 3600.43 6600.94 5371.02 5260.34 6155.1 4788.58 5206.48 4709.35 6586.45 5876.71 5826.04 5226.0 5624.49 3095.48 3979.26 5188.81 6608.73 3745.84 4730.41 5011.84 5696.88 5690.26 5062.71 4156.2 4497.59 4289.17 4274.61 5564.02 6444.77 6314.07 3921.08 4190.31 7055.42 5486.68 5683.61 5805.86 5100.25 4049.02 4470.4 5311.03 5255.12 4285.66 3872.61 4896.11 4238.4 5172.53 4318.48 6132.95 5266.22 4860.33 5226.97 3685.13 3312.06 5180.76 3361.26 3418.99 4480.95 4993.35 5278.36 6218.95 5222.16 5533.72 5533.42 4802.32 4599.38 5246.47 5518.57 4187.31 6191.29 3240.51 7422.36 5161.01 4298.15 4628.4 5832.37 5453.6 6051.83 5409.63 5294.77 3077.84 4709.05 4630.82 4813.08 6799.88 4540.86 3062.43 5426.78 5652.0 5235.17 5463.41 4779.5 5225.33 4435.36 4421.12 4929.75 4221.28 5254.49 6649.96 4456.39 4631.83 4896.39 4384.88 3633.79 6887.27 6008.49 5480.83 4220.46 5653.9 5683.26 5598.74 5046.21 4906.82 5894.61 5131.24 5687.83 5196.67 6496.67 5474.8 4373.3 4750.78 5339.78 4166.08 5762.59 4861.06 6481.79 4298.67 4796.58 5960.66 4962.09 3999.48 5654.31 4203.26 3923.03 4643.85 5082.74 4004.04 5607.14 5411.85 6915.83 6072.45 4470.98 4027.46 3901.8 5759.46 5083.41 6248.6 5443.58 3836.45 4558.46 5346.68 4611.53 5296.29 2681.29 5094.48 5576.92 6408.83 3930.79 4004.35 4763.96 5008.63 5754.18 4270.74 5132.68 6293.89 6595.03 4983.39 5366.52 4690.55 5146.37 7132.12 3678.08 4836.16 5151.11 5463.48 5730.33 4527.99 5545.46 4376.7 5190.61 3764.06 4642.93 3973.12 4263.16 6024.75 6109.49 5860.67 5987.42 5990.52 2967.38 3764.1 4835.83 4159.35 6477.91 4237.98 6439.37 6045.22 4614.3 4303.19 5514.84 6081.14 4256.57 3914.2 5421.53 4607.85 4287.53 6070.3 5612.21 4929.14 5004.23 5945.08 5139.5 6442.69 6320.71 4648.04 6262.72 3527.05 5029.78 3664.11 6607.87 3365.82 5374.51 4163.5 4123.6 5320.28 7092.87 5224.12 4850.14 3637.61 4569.12 6098.14 4472.17 5750.71 5873.69 6222.42 5470.77 4831.47 6062.05 6939.12 4735.33 3999.94 4413.85 4844.57 5092.37 6171.13 2395.5 4864.22 5511.88 5941.61 4933.65 4512.11 5708.99 6333.29 5687.85 6401.43 5020.71 5731.57 5997.88 5662.55 5839.71 5737.92 4360.23 3755.95 6234.32 5365.24 4585.31 4586.19 5293.51 4446.06 3450.93 5323.91 5097.45 4185.61 5737.75 4558.15 2761.07 3778.02 6552.21 5417.8 4350.12 5227.02 5670.0 4232.16 5300.96 4344.51 5680.94 3781.77 5581.55 4543.1 5193.01 6550.44 3474.5 8325.01 3860.83 5732.27 4440.81 4523.39 5941.9 5434.47 6642.76 5829.22 4497.78 5567.93 4243.79 5811.18 5332.65 6451.33 5604.35 6316.56 3091.67 4332.87 4081.97 6420.81 5134.39 5401.99 5580.92 5784.3 3532.3 5769.98 6088.68 2221.99 5937.08 4643.56 5128.57 4135.08 4863.01 6000.7 5620.74 3979.54 5604.21 3169.67 7493.3 4968.03 5304.13 4814.55 5944.09 5833.06 5698.77 6515.84 3464.83 4143.78 5724.64 4538.95 5965.15 4970.88 4763.66 6739.08 7042.12 4797.52 4471.58 5501.93 5463.38 5462.21 6313.06 5945.21 6345.13 3493.7 4938.74 6470.3 4200.03 3474.39 5516.95 5563.79 4406.4 4151.76 6853.85 3905.51 4020.4 3493.47 3497.9 5782.48 4596.75 3374.08 4031.78 6098.1 5950.04 4231.83 2435.33 4074.48 3614.96 4558.47 4477.04 3886.68 5703.74 4747.55 3056.7 2685.81 5591.76 5889.35 5010.04 4394.56 6625.18 4275.07 5825.38 4573.72 4047.87 5099.21 5742.47 6969.28 4917.99 5636.4 4367.78 4095.75 3603.51 4298.45 5222.51 6609.84 5135.96 3834.43 5658.37 4707.06 6074.94 5491.37 4250.88 6348.03 3475.67 4792.39 5278.56 5146.37 6917.62 4013.38 5631.14 6137.8 4343.78 5433.65 4442.22 4008.15 5413.31 4887.76 4669.06 3012.99 4811.32 6400.08 4743.59 4715.58 3317.83 5208.14 4450.7 5151.52 5973.33 3583.21 5442.32 4347.74 5291.9 5067.46 3580.58 5356.79 5233.29 4011.37 4778.82 4312.56 4612.06 5204.04 3361.92 3306.14 5490.58 4863.79 5395.14 4702.06 2477.07 3967.48 4923.41 5117.47 2990.77 4497.31 4925.63 3163.78 4305.16 3293.56 4888.6 4666.81 4780.2 5078.86 6326.39 5163.55 6817.32 4319.79 5960.56 6643.85 6343.14 4020.95 6049.79 4390.41 5374.98 5226.56 5274.19 5599.49 4719.7 4097.57 5313.22 5328.22 3436.15 5711.11 4216.17 4575.94 4721.02 6484.17 4938.72 4254.37 3546.71 5768.57 4498.25 4188.87 5564.23 5151.21 3735.24 6574.95 6817.57 6853.04 4745.43 4912.04 5831.96 4539.07 5464.68 4475.83 4510.8 5480.3 7509.24 4570.98 5896.26 5388.78 6101.13 5599.7 4163.74 4296.69 3665.95 5698.96 3319.67 6471.42 5283.8 4076.59 4428.14 5164.1 6464.15 4124.49 4972.17 4479.11 6685.4 5699.53 4222.77 3783.54 5268.38 5527.23 7038.89 3863.67 4814.12 6193.08 5067.56 6069.3 3352.35 2735.53 5263.3 5116.6 4909.65 6523.86 7693.4 4286.49 4437.07 6184.88 5829.32 3763.05 4396.25 5551.95 5092.24 3918.87 5369.08 4518.04 3101.75 4009.62 4766.06 2081.58 4874.18 2511.46 6505.78 5657.36 2775.69 6124.08 5467.84 3619.79 4750.58 5029.47 5053.95 6710.88 6667.68 6213.04 4721.32 3830.46 6413.11 5882.65 5092.28 5274.14 4918.77 4739.14 4819.73 4636.5 5100.1 3382.7 6471.55 4940.42 3954.91 5085.71 3703.1 4946.42 5923.4 4623.61 2965.01 6263.44 5122.63 4863.27 5774.97 6766.43 5862.86 2315.64 4703.08 4890.5 6113.95 4050.08 5452.42 4901.07 5017.5 5186.3 5005.85 5325.44 5102.75 5021.88 5956.65 4597.29 4200.09 5931.77 5398.64 5108.06 3573.73 4222.4 4000.43 4693.52 4568.41 4661.03 3624.7 5160.59 5262.35 3420.08 4320.42 4691.91 4255.34 5064.79 7046.11 3427.63 4863.97 4146.81 6342.48 5756.75 4587.67 5951.81 3924.14 6918.35 6238.32 6804.79 6372.13 5369.5 5404.01 6016.19 5535.91 3230.13 5714.25 6176.67 5325.96 4850.06 5412.24 6332.01 7044.29 4805.33 4234.18 7085.01 5980.95 3936.95 6153.94 6836.82 3862.77 5887.01 5168.35 3747.03 2783.85 5388.39 4356.49 5335.47 4326.48 4526.81 3994.07 3449.37 4219.94 5491.9 6405.0 4264.91 4659.16 5549.49 4633.05 5423.42 4901.2 6605.86 5012.5 4785.25 6519.43 5461.55 4270.15 5876.64 3298.2 6306.21 5926.11 5235.11 5253.37 5211.38 6515.8 6031.67 5384.76 5529.42 6138.12 5257.12 4434.19 4428.78 4903.82 4965.89 4371.99 5746.28 5187.7 6090.91 3561.29 4082.47 3295.83 4152.85 4219.78 5644.82 6413.02 4440.57 6235.57 3492.19 5203.08 4584.5 4118.84 5412.31 5548.29 3623.87 5163.77 5916.16 6934.37 4488.85 3423.15 5010.2 3731.84 3981.07 4579.69 3554.48 6496.52 5966.61 3991.42 4893.49 4388.63 4514.79 3672.21 4834.87 2216.82 4509.89 5760.22 6752.75 5938.17 5269.38 4795.43 5097.95 4914.45 5313.12 4698.87 3984.88 3344.57 5318.53 4732.09 4281.98 7165.9 5344.83 5783.48 4701.5 4449.98 4771.65 4840.44 5093.82 5439.49 6639.64 5212.43 3687.65 5454.12 4834.3 6348.54 4066.57 5642.35 5156.76 6357.47 6101.57 4891.38 4793.65 5955.86 4532.89 2949.12 4533.37 4848.46 2779.99 5016.02 4581.37 4920.21 4049.16 5851.61 5478.11 5526.31 5030.15 3858.17 4631.99 3477.1 4740.98 3185.39 5128.77 3728.18 5633.61 5048.19 4243.26 6799.23 5907.46 4888.27 6740.71 5399.29 5789.55 4854.11 5971.22 2275.45 4909.31 6522.59 5435.19 5711.62 4383.56 3562.79 7093.13 6865.76 5424.46 6449.64 5266.01 4857.84 5767.9 2978.76 2040.66 4908.49 7016.27 6622.11 4689.15 5089.62 6790.73 5659.95 5243.43 4741.26 5920.32 5409.66 4537.14 4186.6 5251.4 5551.9 3867.19 4453.64 4188.3 4963.34 5019.93 5081.78 4459.28 6116.33 4260.92 4479.94 5499.39 4407.9 6250.23 6736.03 4718.54 5374.07 3087.09 4588.7 7480.41 6027.62 3766.55 5469.13 5765.42 6123.03 6098.95 4997.83 5453.98 3718.69 5148.08 6192.0 4940.28 5885.28 6579.31 3004.34 3022.6 5607.3 5375.1 4811.76 2928.82 5498.42 5351.56 4196.37 6448.66 3556.79 5220.76 4453.97 6945.98 5138.2 6412.67 7001.83 4504.35 5012.97 4036.91 5589.37 5110.11 6379.14 5216.26 4887.52 5478.95 3851.85 6318.23 4058.87 4206.98 5174.75 5932.07 4984.46 5948.71 3856.53 5460.89 6040.74 5260.85 5742.09 2884.65 5887.38 5807.46 6942.34 4648.21 4393.16 3658.05 4549.69 3311.29 6423.81 6192.77 3644.78 4312.15 4078.93 5934.82 4501.78 7122.87 3572.94 5797.36 5001.58 4153.84 5119.86 4592.15 6487.56 5084.17 4901.44 4998.22 5533.19 5417.21 6602.43 4990.79 4798.17 5166.79 4953.1 4516.53 2895.63 5818.95 3940.49 4093.99 5079.22 6464.8 4962.21 4684.44 4749.59 5884.9 3685.13 3685.65 3468.42 4590.55 4673.35 4655.16 3876.21 5869.4 4916.22 5297.19 3701.16 6022.7 4345.67 4255.85 5511.6 5097.69 3885.86 4517.73 6261.75 5235.29 5177.64 3757.34 6415.61 4541.8 4255.31 5453.3 3838.47 2588.37 5424.88 4062.5 5887.15 5415.85 4435.51 7234.66 8659.64 4055.54 4886.12 6419.12 5683.95 6107.89 4233.8 4976.12 4446.84 4817.16 5530.49 5660.55 5653.03 5578.94 7610.49 4246.61 4286.17 3684.56 6028.09 5323.55 3804.5 5452.36 4172.6 4638.18 5211.6 5806.31 5456.71 3503.41 7317.04 3971.08 6204.65 4593.7 4482.9 6550.4 4349.13 3766.69 4891.67 6818.91 3503.65 3634.5 4027.63 6631.28 6571.31 5420.67 4392.65 6413.15 6103.11 5048.55 6459.51 4024.31 4955.16 5844.72 3992.97 4147.31 5989.05 4054.22 7228.94 5393.65 4441.22 4961.99 5853.89 6551.93 4595.12 3110.13 6484.43 4625.67 3485.54 4458.64 4583.52 6418.11 3492.83 6015.02 4922.49 5244.22 5585.14 7039.98 4820.17 4729.42 5089.26 3886.72 3776.8 5415.45 6592.93 5096.43 6350.71 6156.21 6104.26 3568.28 5425.98 5583.61 5996.66 4986.71 6479.39 4122.92 4405.42 4997.91 3598.08 4599.81 3604.14 4452.54 5381.54 4406.05 5810.77 4858.44 4680.94 5799.69 5828.35 5571.72 5876.72 5689.26 5236.43 3809.69 4992.42 4771.13 4940.84 7051.9 5895.77 4608.41 4765.72 4732.09 3988.3 5857.79 2908.7 4039.91 6136.49 4338.08 4642.66 4752.14 5276.7 4378.3 4950.97 5037.06 5660.16 5175.29 5842.56 6134.99 4094.73 5191.08 6200.54 4199.45 5148.58 3548.39 5421.64 4858.51 4207.54 6599.66 3375.28 4936.96 5625.65 4301.61 3184.64 4481.76 5206.33 5375.12 5452.78 5065.26 4304.41 4892.44 6789.23 3989.7 4157.29 5069.89 5107.0 4777.03 6212.15 6813.72 5327.75 4609.02 6486.37 4896.65 6083.28 5561.74 5975.23 6100.73 4745.79 4198.94 4908.75 5470.04 4211.82 6556.26 2628.22 5684.25 5438.92 4244.49 5036.98 5513.8 5188.53 4521.75 3429.57 5569.2 5350.88 4642.74 6735.97 5305.59 5416.45 4330.58 5754.6 3288.01 4904.51 2202.77 6870.97 5751.15 5950.88 4149.55 5474.01 6201.86 3380.69 4140.4 4386.8 3639.44 5446.4 4725.01 5966.75 5510.9 3657.69 4505.28 4883.63 4971.29 6280.13 3684.15 5832.29 4438.76 3994.39 6006.89 6456.58 4618.73 3814.65 4159.81 3965.3 5244.98 4960.64 5792.98 4385.81 4034.05 6436.74 5690.96 2460.79 4456.11 4653.83 6063.64 5096.24 6171.71 7382.3 2995.67 4668.88 4022.56 5522.21 5698.23 5089.1 7300.58 2711.19 4028.32 4714.83 7519.2 4099.92 3208.96 5285.07 4884.59 4680.14 3858.06 4184.23 4478.6 4083.79 4511.7 4833.46 4144.57 5750.07 4351.38 5933.7 6543.13 5149.72 4809.67 4757.74 4687.64 5036.58 4419.71 5469.47 4888.12 5439.9 4244.21 5512.16 5411.02 3197.63 4989.56 4287.16 3645.12 4863.96 5199.44 5713.03 4652.01 3583.49 4928.27 3673.28 5775.31 5052.84 4366.74 4165.21 4603.5 5297.16 4647.67 5354.66 3566.79 4214.44 3629.44 5378.23 4787.97 4356.36 4981.43 4061.6 4741.28 3746.36 4215.2 2603.64 2205.51 2856.55 4553.68 5361.87 6502.97 3758.22 4783.07 4757.2 4946.23 4852.58 4532.7 4504.86 4473.29 4788.08 5079.64 6163.54 52