# vtk DataFile Version 2.0
Time step 29
ASCII
DATASET UNSTRUCTURED_GRID
POINTS 5000 float
172480.0 394581.0 0
177053.0 392118.0 0
189226.0 393020.0 0
321392.0 392257.0 0
164327.0 400020.0 0
168974.0 397086.0 0
170396.0 400334.0 0
167511.0 400798.0 0
172979.0 398085.0 0
175856.0 395671.0 0
180645.0 395016.0 0
185501.0 396449.0 0
192356.0 396182.0 0
195338.0 397071.0 0
203334.0 397618.0 0
209026.0 397325.0 0
214135.0 398647.0 0
219246.0 398455.0 0
226403.0 399421.0 0
230850.0 398888.0 0
241206.0 399025.0 0
252878.0 399311.0 0
259235.0 399483.0 0
268885.0 399235.0 0
274036.0 398907.0 0
279093.0 398361.0 0
295217.0 397872.0 0
301369.0 397422.0 0
307134.0 396244.0 0
312192.0 398786.0 0
312167.0 393608.0 0
316804.0 395516.0 0
318217.0 399436.0 0
321415.0 397213.0 0
324914.0 400247.0 0
326957.0 396228.0 0
332353.0 398095.0 0
156127.0 405388.0 0
160645.0 402746.0 0
159457.0 406199.0 0
164980.0 403561.0 0
169328.0 404795.0 0
173255.0 402144.0 0
177278.0 399506.0 0
182006.0 400405.0 0
189032.0 399654.0 0
185793.0 403475.0 0
193714.0 400540.0 0
198370.0 399507.0 0
196321.0 404699.0 0
200890.0 403550.0 0
206793.0 402499.0 0
214573.0 403164.0 0
218718.0 403140.0 0
223142.0 400350.0 0
222875.0 404339.0 0
227682.0 403579.0 0
232797.0 404616.0 0
235992.0 400704.0 0
246580.0 400796.0 0
257289.0 404050.0 0
263976.0 400343.0 0
261804.0 404137.0 0
266817.0 404088.0 0
271307.0 403526.0 0
276334.0 403652.0 0
280928.0 402561.0 0
284493.0 399666.0 0
289800.0 400156.0 0
285913.0 404101.0 0
295610.0 403404.0 0
304777.0 400499.0 0
300792.0 403074.0 0
308534.0 402295.0 0
312492.0 404308.0 0
315459.0 401693.0 0
317064.0 405122.0 0
318740.0 402707.0 0
321663.0 401126.0 0
324744.0 403305.0 0
328788.0 402040.0 0
331912.0 405003.0 0
332823.0 402133.0 0
336357.0 400883.0 0
340319.0 404349.0 0
345050.0 406178.0 0
147486.0 410849.0 0
151796.0 408623.0 0
156602.0 409361.0 0
160508.0 408994.0 0
162666.0 406227.0 0
163503.0 410081.0 0
165733.0 406997.0 0
168050.0 410443.0 0
172713.0 408193.0 0
176886.0 405076.0 0
181661.0 406756.0 0
186659.0 409378.0 0
190695.0 404777.0 0
198951.0 408931.0 0
204208.0 407695.0 0
208444.0 408401.0 0
211095.0 405800.0 0
216445.0 407590.0 0
223667.0 408513.0 0
227926.0 408701.0 0
237969.0 406455.0 0
243358.0 405025.0 0
248665.0 404772.0 0
246925.0 408753.0 0
252788.0 405642.0 0
257265.0 408821.0 0
262275.0 408835.0 0
267003.0 408538.0 0
272461.0 408798.0 0
277710.0 408355.0 0
282563.0 405936.0 0
289744.0 404718.0 0
286912.0 408475.0 0
292530.0 408868.0 0
297949.0 407408.0 0
304867.0 403678.0 0
307012.0 406930.0 0
311233.0 409170.0 0
314813.0 407538.0 0
318962.0 408725.0 0
321657.0 405461.0 0
323704.0 409565.0 0
326158.0 406041.0 0
328461.0 409724.0 0
329535.0 406038.0 0
332874.0 408477.0 0
337206.0 408517.0 0
335285.0 405155.0 0
341262.0 409669.0 0
348929.0 409013.0 0
345286.0 410301.0 0
137559.0 416375.0 0
140523.0 414675.0 0
143788.0 412436.0 0
144043.0 416075.0 0
150289.0 413531.0 0
146873.0 414313.0 0
151868.0 416285.0 0
154201.0 412853.0 0
159466.0 412965.0 0
164131.0 413870.0 0
167953.0 415082.0 0
172220.0 412968.0 0
176643.0 410080.0 0
173996.0 416517.0 0
176450.0 413722.0 0
181059.0 412453.0 0
188970.0 414431.0 0
193194.0 410120.0 0
197750.0 414153.0 0
207438.0 412474.0 0
212336.0 410651.0 0
217219.0 413597.0 0
220215.0 410101.0 0
223076.0 412742.0 0
228265.0 414435.0 0
232846.0 410049.0 0
237134.0 410809.0 0
235237.0 414080.0 0
238909.0 413713.0 0
242002.0 410404.0 0
246892.0 413952.0 0
251661.0 410462.0 0
255633.0 413605.0 0
259843.0 412405.0 0
265305.0 413012.0 0
277024.0 414065.0 0
281577.0 410102.0 0
284752.0 411685.0 0
287332.0 413895.0 0
291614.0 414369.0 0
297138.0 413267.0 0
302668.0 410149.0 0
301915.0 414513.0 0
305166.0 414334.0 0
307511.0 411449.0 0
311250.0 414083.0 0
315562.0 411789.0 0
320824.0 413505.0 0
326660.0 414833.0 0
331718.0 412945.0 0
335461.0 411558.0 0
334971.0 415156.0 0
339116.0 414328.0 0
344424.0 414931.0 0
348866.0 416779.0 0
348765.0 413585.0 0
353071.0 412001.0 0
352310.0 416292.0 0
357383.0 414475.0 0
361750.0 416264.0 0
134003.0 418676.0 0
130339.0 421331.0 0
137436.0 419088.0 0
141061.0 418728.0 0
145248.0 419424.0 0
148561.0 417338.0 0
151980.0 419618.0 0
155637.0 416489.0 0
160519.0 416980.0 0
155472.0 420349.0 0
157775.0 418968.0 0
164562.0 418505.0 0
168527.0 420455.0 0
170698.0 417272.0 0
173804.0 421454.0 0
177278.0 417365.0 0
180443.0 416771.0 0
184558.0 417483.0 0
193315.0 415715.0 0
196155.0 419449.0 0
202818.0 415456.0 0
200462.0 419208.0 0
207212.0 417441.0 0
212011.0 416085.0 0
218426.0 418480.0 0
221065.0 415894.0 0
223119.0 419689.0 0
233269.0 418667.0 0
239207.0 418401.0 0
242512.0 415054.0 0
247908.0 419219.0 0
251353.0 415714.0 0
257189.0 418806.0 0
261541.0 416198.0 0
265854.0 418041.0 0
270470.0 415082.0 0
282951.0 414931.0 0
280443.0 418801.0 0
285508.0 419766.0 0
289694.0 417756.0 0
296429.0 418042.0 0
299140.0 419851.0 0
300067.0 416727.0 0
303454.0 418466.0 0
308069.0 417387.0 0
314195.0 417690.0 0
317208.0 415668.0 0
318166.0 419019.0 0
322586.0 418842.0 0
331865.0 418223.0 0
337170.0 419240.0 0
341715.0 419383.0 0
346671.0 419765.0 0
350725.0 419339.0 0
359203.0 418304.0 0
355563.0 418800.0 0
362844.0 418925.0 0
360563.0 421651.0 0
365356.0 418021.0 0
368276.0 420059.0 0
365126.0 421402.0 0
123453.0 425540.0 0
126729.0 423471.0 0
129287.0 424729.0 0
134195.0 422335.0 0
132194.0 425639.0 0
138686.0 422817.0 0
135638.0 425918.0 0
143280.0 423028.0 0
148128.0 421219.0 0
147488.0 425423.0 0
150927.0 423117.0 0
154392.0 423134.0 0
159480.0 422013.0 0
164466.0 423312.0 0
169007.0 424892.0 0
177636.0 424839.0 0
180044.0 421113.0 0
184962.0 423567.0 0
190201.0 420379.0 0
194286.0 424554.0 0
199464.0 423551.0 0
204458.0 421398.0 0
209812.0 421159.0 0
214558.0 420636.0 0
213277.0 424821.0 0
218948.0 424465.0 0
228179.0 421410.0 0
235267.0 423909.0 0
243347.0 421432.0 0
252569.0 420056.0 0
250280.0 423966.0 0
256082.0 424850.0 0
262126.0 422246.0 0
270106.0 420967.0 0
275776.0 420593.0 0
280043.0 422952.0 0
289501.0 423778.0 0
293161.0 420065.0 0
296910.0 423203.0 0
301348.0 423492.0 0
306146.0 422717.0 0
311198.0 421394.0 0
315700.0 421457.0 0
314743.0 425766.0 0
319887.0 423683.0 0
324476.0 423201.0 0
327328.0 420632.0 0
328294.0 425456.0 0
331364.0 423100.0 0
335456.0 423790.0 0
340003.0 423179.0 0
344334.0 423814.0 0
349497.0 423823.0 0
353132.0 422027.0 0
354240.0 425376.0 0
356601.0 422358.0 0
358430.0 426084.0 0
363890.0 425799.0 0
367962.0 423697.0 0
371332.0 422516.0 0
371656.0 426113.0 0
375259.0 425046.0 0
113189.0 431797.0 0
116097.0 429721.0 0
119616.0 428274.0 0
123222.0 428537.0 0
121099.0 431167.0 0
126898.0 427235.0 0
129989.0 427638.0 0
125262.0 431209.0 0
129269.0 430452.0 0
133820.0 429366.0 0
139001.0 427291.0 0
137562.0 431443.0 0
141058.0 430984.0 0
143799.0 427984.0 0
147966.0 430373.0 0
151625.0 427113.0 0
154375.0 429349.0 0
156366.0 426086.0 0
157493.0 430448.0 0
160687.0 426733.0 0
165139.0 428006.0 0
161547.0 430760.0 0
166301.0 431340.0 0
169502.0 429391.0 0
172937.0 426789.0 0
176420.0 428498.0 0
181372.0 428094.0 0
185462.0 427550.0 0
189589.0 427328.0 0
197615.0 428990.0 0
203129.0 427451.0 0
207620.0 425339.0 0
210797.0 428085.0 0
215141.0 429137.0 0
224931.0 425511.0 0
230491.0 426791.0 0
235701.0 428920.0 0
240339.0 425941.0 0
245745.0 425604.0 0
252074.0 427550.0 0
261508.0 429606.0 0
266963.0 425631.0 0
271713.0 425402.0 0
271966.0 429804.0 0
276506.0 426427.0 0
284193.0 425926.0 0
280524.0 430269.0 0
289768.0 429026.0 0
293777.0 426384.0 0
298683.0 428263.0 0
304176.0 427665.0 0
309669.0 426758.0 0
315157.0 429783.0 0
318811.0 429073.0 0
324285.0 427996.0 0
329373.0 430070.0 0
332121.0 427104.0 0
335470.0 428024.0 0
338912.0 426905.0 0
342380.0 427770.0 0
347304.0 428221.0 0
351849.0 427380.0 0
355410.0 429176.0 0
360479.0 430764.0 0
368435.0 427348.0 0
365716.0 430662.0 0
369796.0 430830.0 0
372655.0 429402.0 0
379631.0 427357.0 0
376467.0 428201.0 0
379980.0 431794.0 0
382973.0 429566.0 0
386027.0 431099.0 0
105727.0 436048.0 0
109787.0 434605.0 0
113399.0 434937.0 0
117503.0 432928.0 0
116506.0 437045.0 0
122070.0 434533.0 0
124641.0 436661.0 0
127201.0 434527.0 0
131304.0 433507.0 0
134511.0 433219.0 0
133950.0 436349.0 0
137055.0 434988.0 0
141018.0 434739.0 0
144262.0 431956.0 0
146407.0 435644.0 0
152223.0 433131.0 0
157936.0 434555.0 0
163406.0 434337.0 0
169134.0 434509.0 0
173148.0 431483.0 0
177711.0 432580.0 0
181983.0 433186.0 0
185823.0 431051.0 0
189133.0 434236.0 0
193052.0 431652.0 0
197045.0 434207.0 0
201615.0 432756.0 0
207073.0 431427.0 0
211846.0 432007.0 0
219976.0 430800.0 0
215854.0 434538.0 0
225834.0 431387.0 0
231427.0 432450.0 0
235636.0 433323.0 0
240428.0 432177.0 0
245282.0 430141.0 0
249807.0 430634.0 0
246897.0 434623.0 0
254943.0 430964.0 0
251672.0 434889.0 0
267430.0 430557.0 0
272105.0 434752.0 0
276106.0 432176.0 0
281764.0 435229.0 0
285575.0 431793.0 0
294164.0 431208.0 0
290550.0 433137.0 0
297392.0 434730.0 0
302227.0 432856.0 0
306301.0 434032.0 0
307532.0 430994.0 0
309756.0 435647.0 0
311967.0 431536.0 0
316512.0 433786.0 0
321178.0 434930.0 0
321894.0 431709.0 0
325972.0 433664.0 0
333711.0 431332.0 0
331080.0 434964.0 0
338747.0 431556.0 0
336053.0 435906.0 0
343701.0 432038.0 0
346289.0 436298.0 0
348211.0 432743.0 0
351947.0 431299.0 0
351522.0 436297.0 0
355948.0 433226.0 0
360475.0 435392.0 0
365204.0 435323.0 0
368867.0 433723.0 0
372477.0 433778.0 0
375705.0 431960.0 0
376770.0 435102.0 0
379721.0 436422.0 0
385024.0 433912.0 0
382021.0 434703.0 0
389001.0 433004.0 0
388782.0 436053.0 0
392119.0 434927.0 0
395284.0 437203.0 0
97341.9 441721.0 0
102928.0 437997.0 0
100193.0 439590.0 0
105054.0 439637.0 0
108189.0 438161.0 0
109330.0 441916.0 0
112354.0 438726.0 0
115789.0 440865.0 0
119928.0 437380.0 0
122902.0 439372.0 0
119374.0 441061.0 0
126967.0 438334.0 0
130546.0 437159.0 0
129653.0 440897.0 0
133236.0 439654.0 0
137333.0 438544.0 0
141702.0 438375.0 0
144376.0 440962.0 0
148149.0 439564.0 0
150636.0 437221.0 0
154554.0 437666.0 0
151437.0 440727.0 0
[...]
POINT_DATA 5000
SCALARS Radius float 1
LOOKUP_TABLE default
4133.88 4834.9 5120.0 6716.79 4780.03 4665.12 3383.4 3936.02 4094.62 3850.77 6044.04 5415.48 3863.18 2356.98 6182.6 5492.18 5258.36 5061.3 3163.97 5812.43 5906.14 7513.1 5254.28 5733.48 4672.91 5580.89 6810.52 5840.26 6110.27 5561.06 5073.35 5670.04 3615.22 4380.59 3607.45 7613.27 4951.03 5252.48 5495.39 3554.9 3856.1 5980.74 4927.02 5546.39 5325.36 5085.53 5484.83 5351.6 4998.37 4730.36 4715.55 5867.73 3951.75 4499.64 3642.12 4375.68 5542.27 5054.98 5122.66 5484.19 4688.68 4436.4 4402.52 4517.56 4182.53 5903.42 3588.44 5645.7 5176.86 3761.32 4366.19 3672.51 5553.16 4940.78 4231.61 4008.92 3942.53 3379.84 4827.82 3589.27 5759.91 3038.33 4333.2 5529.52 7199.21 5255.32 5337.48 6124.89 5708.81 4015.92 3996.0 4487.31 4044.71 5816.2 5109.54 6483.19 5945.65 6759.9 5538.89 5416.38 6059.59 2720.68 5013.56 5701.86 4238.81 4468.59 6030.06 5170.02 3557.27 5200.76 4927.31 4862.64 5185.34 4432.58 6684.56 3968.64 3955.56 4118.05 5292.64 6166.5 5065.13 2938.66 5305.17 4861.08 4003.05 4712.33 4805.87 5227.21 3997.1 5697.78 3260.67 5123.52 4392.68 4295.38 5615.42 6037.08 4523.7 4151.94 4382.74 4049.23 5601.05 4929.8 3586.91 3103.0 5481.78 5542.21 5043.05 4002.16 5693.81 4174.52 3486.22 3829.13 6230.49 5418.62 7021.47 5493.32 5926.61 4955.55 5836.15 3563.63 4345.55 6704.06 5885.03 2837.58 3653.41 3871.88 5325.02 5246.2 5017.13 5279.39 3673.74 5205.43 7447.37 4688.67 2635.86 4385.06 4733.32 7184.19 5936.02 2924.37 3867.67 4290.3 5399.73 5390.22 6038.78 6902.81 4667.36 4091.31 4254.17 6372.62 7565.34 2240.39 5091.39 6756.95 5096.78 6324.23 4727.24 4329.05 4931.38 4685.34 4651.28 4384.42 4516.43 4948.92 5637.59 4937.14 3115.91 3307.12 5924.89 4778.34 4138.16 6894.71 4684.5 3091.3 6458.82 4601.27 5489.43 5740.68 3641.64 4277.89 6051.14 4195.44 3261.21 5539.32 6496.85 5600.93 3856.01 5541.59 4390.66 5728.85 4827.23 4911.47 6116.18 4924.6 4381.97 6257.19 3255.82 2812.98 4065.69 2899.43 5603.15 4695.45 4660.72 3888.21 3921.18 5891.05 6644.76 5629.19 5090.24 5923.5 4612.68 4129.43 5293.9 3320.52 6142.94 3843.58 4194.5 4602.25 4792.73 4736.58 3485.26 6082.81 5110.37 5927.43 3191.99 6355.42 4362.19 5690.56 3693.63 4493.48 6084.86 5478.92 5551.36 4414.54 5789.98 6138.47 7054.71 5527.54 5573.7 5747.75 5054.25 4796.33 4055.8 7325.81 5360.19 4794.96 4874.39 4124.71 5083.08 6834.49 6337.56 5803.39 5863.59 4024.3 5555.28 5242.73 4737.14 4686.65 5556.96 6052.7 3798.62 5581.75 6392.01 3666.57 5308.1 4907.89 4937.02 5655.21 4786.6 5740.84 5530.87 4973.83 4281.49 3912.37 6342.25 6691.39 4270.53 5191.63 5082.47 5344.25 4478.15 4043.57 5379.87 4501.51 3708.04 4556.36 3240.09 5513.6 4901.41 5664.98 6327.9 4659.59 4048.37 5492.26 5244.78 5762.84 3937.74 4749.8 5082.6 5810.84 5094.44 4230.54 3748.24 4655.49 4467.94 4850.81 6038.14 2540.31 6029.66 6302.8 5697.4 4727.62 4270.95 5206.78 5280.17 6425.26 5143.58 6186.19 4839.34 2980.99 7933.0 5525.39 3998.5 5173.87 5938.34 6394.38 5380.13 5118.27 5169.36 5932.23 5834.74 5788.23 3043.85 5461.13 6730.19 4907.06 3735.44 4073.93 4645.41 4433.59 6445.94 4310.18 4218.06 7134.64 4790.08 5978.9 4187.56 4840.84 4593.7 5344.0 6045.46 4763.45 4150.99 3771.48 5681.38 4138.42 5925.6 5987.17 6013.14 2765.2 5138.31 5264.06 3688.8 3369.23 4548.16 5449.18 4220.88 6519.71 6640.13 5478.47 6142.37 6061.47 4933.21 5375.47 4723.12 5120.49 5201.36 5262.61 4306.53 5409.61 6038.2 4005.44 5555.88 5713.22 6732.43 5028.96 3866.16 6362.12 4484.76 4840.01 5152.36 5611.2 4511.82 4455.12 4816.2 4894.16 4896.52 5711.87 4941.22 3372.79 5282.64 5791.61 3369.13 4479.66 4808.52 5367.2 5607.24 4726.76 3599.45 5839.13 5163.9 5495.68 6043.3 5489.34 5952.75 5537.72 4320.28 5542.14 6332.36 4931.53 5480.13 6308.71 3629.62 4997.27 5135.69 4301.06 4290.14 5445.87 3815.26 4216.92 4704.72 4177.94 4742.68 4502.5 4107.03 3929.19 4271.69 5198.77 5643.58 5147.67 4292.06 3979.82 5006.58 5011.31 4602.86 4621.75 4581.13 4551.24 5358.59 4515.71 5367.52 4322.15 3092.35 5210.03 4714.54 3629.96 3320.11 5351.39 5119.37 3982.23 6163.38 4566.18 3459.9 4964.09 4809.42 4093.08 5024.9 4717.05 5659.17 5094.81 5972.06 4312.67 5861.71 4359.04 3183.98 3794.63 5017.78 4524.28 3778.1 4727.24 5826.64 4220.65 6820.42 6321.41 4089.76 4751.02 5526.55 3192.41 5184.56 4987.87 4715.72 4669.66 4764.96 5046.33 5053.92 6352.26 3847.38 3818.59 4863.72 5002.48 5708.14 4262.82 3920.42 6122.55 2739.94 4223.33 4716.19 5911.67 5514.76 3456.98 4020.32 4877.67 6562.18 4245.72 5908.1 4571.7 4344.58 5634.83 5495.84 5782.6 5113.21 4862.21 5499.11 5922.5 3633.87 3970.25 4850.01 5577.04 5215.05 6318.18 4481.53 5586.81 3948.17 3856.59 4219.07 5413.79 3610.4 6387.01 6202.55 5025.39 5893.5 5030.91 6022.17 4583.31 4503.89 5806.08 4997.27 4853.39 4449.22 5543.27 5287.2 6135.57 5998.38 5423.8 5013.13 4270.24 4989.15 3417.33 4164.13 5015.69 6175.81 4947.52 6677.09 4305.57 6959.81 4829.35 3791.79 5201.67 4424.7 4754.05 6084.93 5215.15 4739.42 3315.57 5804.71 5020.12 5727.3 4242.52 5356.51 4277.88 3057.03 4087.15 4758.21 4143.08 7500.97 6623.85 5102.36 8332.24 6155.31 4342.9 4553.56 5329.64 3323.28 6695.82 5709.62 6405.76 5835.78 3498.2 3066.13 4302.5 4541.21 6048.7 4156.38 5896.46 5316.75 4164.68 5022.8 6268.1 3784.5 5820.48 7034.11 6261.42 4011.77 4527.08 5347.48 4374.35 2775.04 4810.12 4138.46 4986.77 3821.72 5137.34 5330.45 5423.0 5077.33 3689.45 4746.52 5572.95 6338.89 5584.06 7111.16 3817.13 4547.19 4377.07 5507.24 6851.54 5570.3 4336.42 4306.11 5243.29 7589.94 3130.65 5628.24 5856.11 3327.49 4109.88 4234.94 3960.8 4562.29 4980.85 5080.66 5110.45 4926.42 5248.77 4642.34 4083.97 4520.1 5153.74 5874.89 4528.09 4293.03 5813.4 4389.21 4925.44 4128.98 4951.47 6246.22 5246.61 4307.28 3697.96 5538.93 4723.48 4899.11 4745.45 2631.9 5281.28 6255.18 4668.71 7228.46 3948.23 5228.18 5787.31 3927.99 5065.11 5069.84 4051.44 6049.55 5054.74 5941.72 5794.24 4127.74 5105.16 2476.04 6006.16 6009.88 7055.53 6133.92 3719.84 5669.65 4178.4 5934.22 3780.23 5253.55 3471.03 4359.62 5011.84 6946.21 2586.12 5433.8 6125.34 5965.78 6396.74 6898.19 6035.6 5526.14 5198.29 3975.31 5125.78 3824.16 3868.18 6723.16 5372.61 3686.21 5023.15 6480.17 3844.9 5101.59 3695.36 3813.22 3848.93 3963.86 6020.48 5935.47 3402.32 5903.66 4528.49 5004.67 5365.89 5992.26 4511.54 5070.39 4923.9 5714.58 3329.99 5208.32 3296.27 4713.25 4607.02 4204.84 3895.51 6243.0 4165.81 3556.85 5441.96 6291.51 3435.9 5174.89 5882.89 5370.52 4188.32 5774.81 4100.38 3746.31 5344.77 5097.87 5027.98 4278.07 7267.18 6256.02 5320.92 5269.18 4406.1 6362.14 6719.88 5978.82 5266.5 5868.82 4066.38 4050.9 4978.31 4241.89 4099.77 4981.9 4537.32 4678.38 5991.09 5448.61 3942.07 5050.65 3937.08 4827.33 5013.67 5513.57 5729.23 5624.49 5826.04 5339.78 3095.48 4166.08 4861.06 6481.79 3979.26 5960.66 6608.73 3999.48 3745.84 5188.81 6057.22 5062.71 5690.26 4156.2 4497.59 4289.17 5975.63 5564.02 5252.34 2965.79 4410.55 7099.43 5315.4 6449.45 3627.82 4044.45 5344.43 4373.47 5045.38 5350.88 5130.91 5402.24 4519.22 4531.14 6445.22 4564.34 4871.44 5076.35 6375.99 5200.05 5234.29 5313.66 5419.37 4466.03 5275.32 5409.33 4898.94 5196.0 4613.31 4973.78 6119.09 3947.47 5091.68 7531.29 5069.25 5048.89 6673.96 3161.47 3991.03 6390.78 4288.3 7435.25 6826.57 4652.29 4788.87 4495.87 6022.72 5498.32 5346.27 5527.33 6475.1 4969.21 2691.29 4880.14 2845.98 5289.52 4305.43 5314.85 5450.44 5034.59 6510.17 4942.77 4263.33 5080.18 4454.63 4523.88 3279.1 4948.98 5227.52 4414.48 5163.02 4729.43 4656.78 4092.24 4562.74 5126.91 7443.72 5133.97 5371.02 5260.34 5206.48 6155.1 4709.35 6586.45 5226.0 5762.59 4750.78 3365.82 5374.51 5320.28 5224.12 4796.58 4298.67 5873.69 4962.09 4203.26 5654.31 4730.41 4643.85 5696.88 3923.03 4004.04 5607.14 6915.83 6072.45 4274.61 6444.77 6314.07 4287.63 5776.37 4516.28 4190.31 5262.19 5678.96 6070.58 4244.9 5490.43 6034.41 5022.28 5452.83 4959.34 4948.5 5383.07 4527.02 4591.87 5013.42 3838.56 5651.07 6248.81 5872.05 5273.35 4091.8 4645.58 2651.49 5512.23 5181.4 5985.29 4247.23 4178.15 4733.04 4694.83 5788.66 4354.08 5936.36 3903.75 4755.47 5935.03 5475.8 5314.69 4249.46 5965.81 3702.37 4643.31 2330.66 4177.19 6917.52 5402.21 4989.09 4982.31 4307.48 3848.54 5941.4 5331.02 4871.96 5742.65 5592.32 5381.16 5912.61 5565.13 4403.98 4560.84 6086.96 5233.78 5776.57 7144.24 3600.43 6600.94 4906.82 4788.58 5131.24 5196.67 6496.67 5876.71 4373.3 5474.8 5029.78 4123.6 4163.5 4143.78 7092.87 4538.95 4970.88 4850.14 6739.08 4797.52 4471.58 6343.14 4569.12 3637.61 6098.14 4472.17 6222.42 4938.74 5470.77 4831.47 6062.05 5082.74 5411.85 5092.37 4027.46 4470.98 5759.46 3921.08 7055.42 5486.68 6048.86 4285.32 4986.51 5197.52 5178.99 5615.35 4790.78 4247.15 6552.22 5379.09 4602.85 5210.48 4962.77 4853.02 6259.23 5088.44 5670.2 4711.62 4114.24 5349.31 4268.65 4649.22 5394.55 5509.42 5094.52 4256.43 2682.24 4520.62 5928.32 5229.48 5475.7 4485.99 5127.16 5435.74 4244.99 6050.81 5543.46 6185.89 3997.96 4750.17 5660.85 3460.94 3990.25 3691.0 4752.51 3587.05 6229.37 6718.19 5282.91 4425.84 7256.35 4800.69 4863.23 3555.86 4402.67 4470.61 4631.83 6193.35 6887.27 3701.27 4806.34 5683.26 5046.21 5598.74 5894.61 5687.83 5004.23 6442.69 6320.71 4648.04 6262.72 3664.11 6607.87 6515.84 5724.64 4763.66 5965.15 7042.12 4666.81 6326.39 5163.55 4319.79 6643.85 4020.95 5501.93 5463.38 5462.21 5945.21 5750.71 3493.7 3474.39 6470.3 4200.03 6939.12 4735.33 4406.4 4413.85 4844.57 4864.22 2395.5 3901.8 5511.88 5083.41 4512.11 6248.6 3836.45 5683.61 5100.25 4049.02 6894.26 5311.03 5339.38 6169.11 4896.11 4027.09 6422.84 4502.18 5534.94 7552.94 4051.34 6101.92 5323.3 4998.21 4662.56 3457.48 5166.79 3405.98 2976.22 5417.15 3688.16 4681.72 4946.74 5996.33 5415.19 4612.62 4016.18 3619.07 5526.75 4275.57 6385.23 5327.45 5560.26 2983.99 2614.4 6363.92 6205.93 4439.35 5830.72 6184.4 3758.07 3828.81 4373.45 4236.14 4082.57 5733.62 4407.87 5282.51 5169.9 3004.16 3797.33 4460.92 5945.89 4042.28 4105.55 6566.1 6065.22 6386.78 4996.99 4384.88 4896.39 6081.14 5480.83 6008.49 4220.46 5653.9 5612.21 4929.14 5945.08 5139.5 7493.3 4814.55 5833.06 3527.05 5698.77 3464.83 5117.47 2990.77 4925.63 3163.78 3293.56 4888.6 4780.2 5078.86 4918.77 4636.5 4819.73 6817.32 3382.7 3954.91 6471.55 5085.71 2965.01 6263.44 4863.27 5960.56 5774.97 5122.63 5862.86 6049.79 6313.06 5374.98 6345.13 4719.7 5274.19 5516.95 4097.57 5313.22 3905.51 3999.94 6171.13 6853.85 3497.9 4020.4 5941.61 4933.65 6098.1 5443.58 4558.46 5805.86 5346.68 4470.4 5296.29 4611.53 5255.12 5094.48 4285.66 4238.4 5172.53 4135.62 5801.99 6132.95 4860.33 3685.13 7644.38 6004.68 6799.4 3627.55 6239.84 4635.6 4256.67 6079.11 3931.07 6430.39 7440.72 3949.6 4945.39 6326.18 3950.63 5661.62 6631.19 6648.68 4467.04 5626.61 5817.25 5061.98 4537.6 4923.24 4419.61 7177.44 5309.98 6553.94 5255.18 4767.78 5235.17 4779.5 4421.12 4340.76 4435.36 5254.49 4221.28 6649.96 4456.39 5514.84 3633.79 3914.2 5421.53 4607.85 6070.3 4287.53 5128.57 6000.7 5604.21 3169.67 3979.54 4968.03 5304.13 5944.09 4863.79 4702.06 2477.07 4497.31 4923.41 4721.32 4305.16 5092.28 5882.65 5274.14 4739.14 4434.19 5100.1 4940.42 3703.1 4371.99 4946.42 5923.4 4963.34 5081.78 3295.83 4459.28 5499.39 4260.92 5644.82 6250.23 6413.02 3492.19 4584.5 4118.84 5548.29 6766.43 2315.64 4703.08 4390.41 5226.56 5599.49 6113.95 4050.08 5452.42 5017.5 5328.22 5563.79 4151.76 6484.17 3493.47 4721.02 4596.75 5782.48 4254.37 3374.08 4031.78 5950.04 5708.99 4231.83 5687.85 2435.33 6401.43 5020.71 2681.29 5997.88 5839.71 3872.61 5576.92 4318.48 6408.83 3930.79 5266.22 5226.97 4004.35 5754.18 3312.06 5180.76 3361.26 4480.95 5278.36 5865.39 4409.63 4427.28 5370.85 3082.32 5949.46 3658.37 5376.71 5703.6 5070.29 4807.28 4867.08 4266.03 5280.69 4220.03 4713.74 6923.84 5407.78 5449.46 4084.49 6179.96 6632.99 6113.54 5147.36 6260.79 4563.46 3963.76 5726.66 5460.65 5652.0 5463.41 5225.33 4929.75 6045.22 4614.3 4303.19 5134.39 5784.3 4256.57 6088.68 5937.08 4135.08 5620.74 5233.29 4312.56 4612.06 5204.04 3361.92 4750.58 3306.14 5490.58 3967.48 5395.14 6213.04 3830.46 6031.67 6413.11 5529.42 5257.12 4903.82 4965.89 5746.28 6090.91 5187.7 3561.29 4082.47 4623.61 4219.78 4188.3 5019.93 5511.6 5235.29 3885.86 5177.64 4255.31 6116.33 4479.94 5453.3 4407.9 4718.54 6736.03 4440.57 6235.57 5412.31 3623.87 3087.09 5916.16 6934.37 3423.15 4890.5 3731.84 3981.07 4901.07 5186.3 5005.85 3436.15 4216.17 4575.94 4938.72 3546.71 5768.57 5564.23 3735.24 6574.95 4074.48 6333.29 4558.47 5731.57 5662.55 5737.92 4360.23 5365.24 5293.51 4763.96 5008.63 3418.99 5132.68 6595.03 4993.35 6218.95 5521.25 3661.9 5222.16 5107.23 5136.08 3178.54 5558.68 4765.02 3776.94 4010.57 5629.39 4448.13 2684.03 4768.61 2261.36 5075.55 4522.21 5506.19 6719.94 4950.67 5227.59 6166.29 5453.6 5703.07 5294.77 4662.43 4630.82 4043.66 5528.53 4813.08 6799.88 3062.43 5990.52 5426.78 4835.83 2967.38 4159.35 6477.91 4237.98 3091.67 6439.37 4081.97 5401.99 5580.92 3532.3 5769.98 5442.32 2221.99 4643.56 4863.01 5356.79 4778.82 6124.08 5467.84 5053.95 6710.88 5235.11 6667.68 5211.38 6622.11 5384.76 4689.15 6138.12 4428.78 5659.95 5243.43 4152.85 5409.66 4537.14 5551.9 4453.64 4345.67 6261.75 4765.72 2908.7 4517.73 3757.34 4338.08 6415.61 4752.14 4378.3 4687.64 4419.71 5037.06 4950.97 5660.16 4989.56 4541.8 5175.29 6134.99 4094.73 3838.47 2588.37 5887.15 5203.08 4435.51 5374.07 7480.41 3766.55 5163.77 6027.62 4488.85 5010.2 4579.69 3554.48 6123.03 6496.52 5966.61 5711.11 5325.44 5021.88 5956.65 4498.25 4188.87 5151.21 5398.64 6817.57 3614.96 4477.04 3886.68 5703.74 4747.55 3056.7 3755.95 6234.32 4586.19 4446.06 3450.93 4270.74 6293.89 4558.15 2761.07 4983.39 5366.52 4690.55 5533.72 5533.42 4802.32 4599.38 5246.47 6157.04 4187.31 6191.29 7422.36 5161.01 4298.15 4628.4 5832.37 4642.93 5409.63 4263.16 4709.05 3077.84 6024.75 6109.49 5860.67 4540.86 5332.65 3764.1 5604.35 6316.56 4332.87 6420.81 4715.58 4450.7 5151.52 5973.33 3583.21 4347.74 5291.9 5067.46 4009.62 3580.58 2511.46 4011.37 2775.69 5657.36 6519.43 3619.79 5029.47 5876.64 6306.21 5926.11 5253.37 5767.9 6515.8 3685.13 6790.73 4655.16 4741.26 5920.32 4186.6 3867.19 5251.4 5097.69 4039.91 5857.79 4642.66 5276.7 5036.58 5469.47 4888.12 6119.63 5411.02 4752.9 5512.16 3197.63 4287.16 4863.96 5842.56 5191.08 4062.5 5424.88 5415.85 8659.64 4588.7 6599.66 5683.95 5469.13 5765.42 6098.95 4997.83 3991.42 4893.49 4388.63 4834.87 5102.75 5760.22 4597.29 4200.09 5938.17 5931.77 4795.43 5097.95 5108.06 3573.73 4693.52 6853.04 3420.08 4745.43 5831.96 5464.68 5591.76 2685.81 4585.31 5010.04 6625.18 5323.91 4570.98 4275.07 5097.45 5737.75 5742.47 3778.02 6552.21 5417.8 5146.37 7132.12 3678.08 4836.16 5518.57 5151.11 5463.48 3240.51 5545.46 4527.99 4376.7 5190.61 8325.01 6051.83 4440.81 5941.9 3973.12 6642.76 4497.78 5567.93 5987.42 4442.22 6451.33 5413.31 3012.99 6400.08 4743.59 5208.14 3317.83 3763.05 4396.25 5092.24 5369.08 3101.75 4518.04 4766.06 4874.18 2081.58 6505.78 4785.25 5461.55 4270.15 6865.76 5424.46 5266.01 4908.49 2978.76 2040.66 7016.27 5884.9 3468.42 5089.62 4590.55 3685.65 4673.35 3876.21 5869.4 4916.22 3701.16 5297.19 6022.7 4255.85 4732.09 3988.3 6136.49 5750.07 6543.13 5149.72 4356.25 5776.96 5329.59 4209.49 5742.74 5464.25 3821.94 4244.21 5439.9 5486.48 5367.73 5301.47 4947.24 4617.55 3645.12 5199.44 6200.54 5148.58 5421.64 4199.45 7234.66 4207.54 4886.12 4055.54 6419.12 4233.8 4976.12 4817.16 5453.98 5148.08 3718.69 4514.79 3672.21 2216.82 4509.89 6752.75 5269.38 5607.3 2928.82 4914.45 4222.4 4698.87 4000.43 4661.03 4568.41 3624.7 4912.04 5262.35 4691.91 4539.07 4475.83 4255.34 4510.8 5889.35 7509.24 4394.56 5896.26 5388.78 5825.38 4185.61 4047.87 4573.72 5099.21 4917.99 5636.4 4367.78 4350.12 5227.02 5670.0 4232.16 5300.96 4344.51 5680.94 5730.33 3781.77 5581.55 5193.01 4543.1 6550.44 3860.83 3764.06 5732.27 4523.39 5434.47 5278.56 6917.62 5829.22 4243.79 5631.14 5811.18 4343.78 5433.65 4008.15 4909.65 4887.76 4669.06 4811.32 4286.49 6184.88 5829.32 5551.95 3918.87 5549.49 5423.42 6605.86 5012.5 5435.19 3562.79 7093.13 3298.2 4953.1 6449.64 4857.84 4962.21 6464.8 4749.59 4684.44 4680.94 4858.44 5799.69 5571.72 5689.26 3809.69 4771.13 4992.42 7051.9 4940.84 5895.77 4184.23 4833.46 5550.75 4809.67 5933.7 4757.74 7248.4 6045.67 4216.95 5280.12 3946.28 4444.97 5984.81 3498.16 4409.27 4640.06 4588.99 3875.05 3456.47 3540.11 5471.74 4652.01 4344.34 3548.39 3583.49 3673.28 4858.51 3375.28 4366.74 5625.65 4301.61 6107.89 3184.64 4446.84 5530.49 5660.55 4304.41 5653.03 6192.0 4940.28 5885.28 3004.34 5323.55 3022.6 5375.1 4811.76 4172.6 5313.12 5351.56 3984.88 5160.59 4732.09 4320.42 7165.9 5064.79 5344.83 5480.3 3427.63 4146.81 6342.48 5756.75 6101.13 5599.7 4163.74 6969.28 3665.95 5698.96 4095.75 3603.51 4298.45 5222.51 6609.84 5135.96 3834.43 5658.37 4707.06 6074.94 3474.5 5491.37 4250.88 6348.03 3475.67 4792.39 7038.89 5146.37 4013.38 5067.56 6137.8 3352.35 5263.3 3747.03 6523.86 7693.4 4326.48 3994.07 4437.07 4219.94 3449.37 5491.9 6405.0 4264.91 4659.16 5789.55 2275.45 4633.05 4909.31 4901.2 5711.62 4383.56 4990.79 5166.79 4516.53 5818.95 2895.63 4093.99 3940.49 3604.14 4452.54 4406.05 5089.1 5828.35 5876.72 5236.43 3208.96 5285.07 4608.41 4680.14 4083.79 4144.57 4351.38 4187.94 5980.59 6834.41 3796.15 6226.14 5466.33 3000.29 7216.98 5721.05 4209.31 4247.69 5718.28 4514.39 6242.79 4321.21 5950.45 5713.03 5088.57 5849.65 4928.27 5134.67 5052.84 4165.21 5297.16 4936.96 4481.76 5206.33 5065.26 5452.78 4356.36 4892.44 5578.94 7610.49 4286.17 6579.31 6028.09 5452.36 3804.5 6486.37 5498.42 3344.57 5318.53 5220.76 4281.98 5783.48 7046.11 4449.98 4863.97 4771.65 4840.44 5093.82 4587.67 5951.81 3924.14 6918.35 4296.69 6238.32 3319.67 6471.42 5283.8 4076.59 4428.14 5164.1 6464.15 4972.17 6685.4 5699.53 4222.77 3783.54 5268.38 5527.23 4805.33 3863.67 5980.95 4814.12 6193.08 6069.3 2735.53 5887.01 5116.6 5388.39 2783.85 3728.18 5335.47 4356.49 4526.81 5048.19 5907.46 4888.27 6740.71 6487.56 5399.29 5971.22 5533.19 6522.59 6602.43 4798.17 3568.28 5425.98 6479.39 4122.92 4405.42 4997.91 5079.22 4599.81 5381.54 5810.77 2711.19 4714.83 4028.32 5474.15 7519.2 4884.59 4099.92 6355.68 3858.06 4478.6 4511.7 4304.63 5263.27 6300.92 5021.77 4173.54 5599.29 4801.8 6038.68 5046.12 5271.02 4807.4 7013.17 3805.67 4601.74 6101.86 6506.86 4227.41 5580.34 5993.0 3852.6 4803.57 5966.42 5775.31 4215.0 3332.49 4706.5 4603.5 5354.66 4647.67 4214.44 5375.12 4787.97 4981.43 3746.36 6789.23 3989.7 4777.03 4246.61 3684.56 5327.75 4609.02 4896.65 4638.18 4196.37 5211.6 6448.66 4453.97 6945.98 5138.2 4701.5 4504.35 5589.37 5439.49 5212.43 4834.3 6348.54 6804.79 6372.13 5369.5 5404.01 6016.19 4124.49 4479.11 3230.13 5714.25 5325.96 4850.06 6332.01 7044.29 4234.18 4049.16 7085.01 3936.95 6153.94 6836.82 3862.77 4631.99 4740.98 5168.35 3185.39 5128.77 5633.61 4243.26 6799.23 5119.86 4592.15 4854.11 4901.44 4998.22 5417.21 5583.61 6063.64 5996.66 7382.3 2995.67 4022.56 3598.08 5522.21 5698.23 7300.58 3608.06 4923.57 6633.61 5217.95 4867.7 5484.36 3953.55 4277.24 4063.9 4469.54 4314.56 5161.1 3928.53 4619.2 5606.51 5166.41 5740.65 5067.56 3834.47 2596.96 6349.67 6329.53 4590.01 6541.45 4750.49 5078.31 5391.48 4923.43 5131.15 4110.59 4847.14 3950.27 5116.66 3566.79 3629.44 5378.23 5003.78 5374.67 6246.56 4741.28 4061.6 4215.2 2603.64 5069.89 5107.0 4157.29 6212.15 6813.72 4783.07 4946.23 4852.58 6083.28 5806.31 3556.79 5456.71 3503.41 7317.04 3971.08 6412.67 7001.83 5012.97 4593.7 4036.91 5110.11 6639.64 6379.14 3687.65 4887.52 5454.12 5478.95 4066.57 5642.35 5156.76 6357.47 6101.57 4891.38 5535.91 5955.86 6176.67 4848.46 5412.24 5016.02 2779.99 4581.37 4920.21 6942.34 5851.61 5478.11 5526.31 3858.17 3477.1 5934.82 4078.93 4501.78 7122.87 3572.94 5797.36 4153.84 5001.58 4729.42 5089.26 5084.17 3886.72 5415.45 3776.8 5096.43 6156.21 6104.26 2460.79 4653.83 6171.71 4986.71 6589.82 3628.89 4668.88 5027.43 3772.3 4855.01 5867.64 6208.9 3340.09 6059.93 5602.53 6061.63 2279.05 4829.35 4075.28 4989.2 8137.11 5291.05 6650.77 4067.96 4824.12 7104.73 6162.3 5701.75 4350.15 4264.54 4139.3 3516.27 5261.19 7043.44 4263.78 4643.9 5228.75 6047.14 5009.83 5666.95 5210.38 4642.2 5717.8 4811.22 3683.86 4918.76 5293.75 3299.24 4208.41 5826.78 5473.72 2856.55 2