# vtk DataFile Version 2.0
Time step 53
ASCII
DATASET UNSTRUCTURED_GRID
POINTS 5000 float
207645.0 284653.0 0
213171.0 285798.0 0
278510.0 286279.0 0
297464.0 284636.0 0
202705.0 286442.0 0
202414.0 291473.0 0
206544.0 288945.0 0
209449.0 287883.0 0
211332.0 290973.0 0
216989.0 290127.0 0
221877.0 288039.0 0
228572.0 288843.0 0
224959.0 291345.0 0
232046.0 286663.0 0
232704.0 289967.0 0
237214.0 288576.0 0
242650.0 290631.0 0
249317.0 291082.0 0
255633.0 290546.0 0
266647.0 290522.0 0
271488.0 287689.0 0
285933.0 289177.0 0
291321.0 286628.0 0
297169.0 289911.0 0
207005.0 293241.0 0
214496.0 294793.0 0
220979.0 294058.0 0
226166.0 295517.0 0
230226.0 293301.0 0
235119.0 293728.0 0
239963.0 295378.0 0
244987.0 295707.0 0
253253.0 295565.0 0
257508.0 294877.0 0
260866.0 292096.0 0
264235.0 294690.0 0
268522.0 295375.0 0
270950.0 292207.0 0
273263.0 296415.0 0
275407.0 291605.0 0
277952.0 295831.0 0
280832.0 291870.0 0
284367.0 294458.0 0
281561.0 295964.0 0
287865.0 293713.0 0
292118.0 292166.0 0
296672.0 295921.0 0
203008.0 296716.0 0
201909.0 301253.0 0
206368.0 300971.0 0
209975.0 297368.0 0
213776.0 301048.0 0
217804.0 298066.0 0
222738.0 299650.0 0
228210.0 300261.0 0
231978.0 297345.0 0
232830.0 301547.0 0
236359.0 298734.0 0
241439.0 300656.0 0
249363.0 296635.0 0
247029.0 300224.0 0
251950.0 299982.0 0
256798.0 299607.0 0
260939.0 297261.0 0
261025.0 301531.0 0
265435.0 299480.0 0
270049.0 299233.0 0
276369.0 299648.0 0
280561.0 299650.0 0
285137.0 298501.0 0
288957.0 297130.0 0
289046.0 301514.0 0
292366.0 298569.0 0
203518.0 305276.0 0
209951.0 305387.0 0
218411.0 302371.0 0
222314.0 305385.0 0
226133.0 303806.0 0
229646.0 304991.0 0
233558.0 305168.0 0
236822.0 303218.0 0
240484.0 306415.0 0
245098.0 304717.0 0
249900.0 304271.0 0
254628.0 304050.0 0
259111.0 305477.0 0
264654.0 305602.0 0
268747.0 302754.0 0
273061.0 302362.0 0
270650.0 305160.0 0
278083.0 304485.0 0
283882.0 303612.0 0
287989.0 305623.0 0
291499.0 305044.0 0
296213.0 302859.0 0
202028.0 309418.0 0
206403.0 309884.0 0
211635.0 311059.0 0
216242.0 307288.0 0
221319.0 310552.0 0
226520.0 309067.0 0
232188.0 309497.0 0
236269.0 307572.0 0
244029.0 308609.0 0
241747.0 310574.0 0
247732.0 308825.0 0
252272.0 308308.0 0
256129.0 308162.0 0
259932.0 310783.0 0
269410.0 307824.0 0
266062.0 311979.0 0
273458.0 307020.0 0
271888.0 311162.0 0
277513.0 310715.0 0
281937.0 307956.0 0
282716.0 311910.0 0
286006.0 309142.0 0
290272.0 308363.0 0
293662.0 307704.0 0
294387.0 311134.0 0
297550.0 308631.0 0
202046.0 313143.0 0
202300.0 317076.0 0
206946.0 315152.0 0
212626.0 316274.0 0
216666.0 313009.0 0
220847.0 314914.0 0
229412.0 312889.0 0
225361.0 314510.0 0
232674.0 313892.0 0
229862.0 316593.0 0
237298.0 312742.0 0
242970.0 314482.0 0
246617.0 312634.0 0
248167.0 315777.0 0
254708.0 311990.0 0
250493.0 312600.0 0
252842.0 316643.0 0
257269.0 315194.0 0
261790.0 316296.0 0
270229.0 315402.0 0
274371.0 315058.0 0
280427.0 314478.0 0
277838.0 315447.0 0
283777.0 316255.0 0
286395.0 312956.0 0
290520.0 312116.0 0
288860.0 316066.0 0
294056.0 315597.0 0
297852.0 312906.0 0
298376.0 316433.0 0
201930.0 320869.0 0
205514.0 320185.0 0
209447.0 319441.0 0
213181.0 321529.0 0
217927.0 319003.0 0
222807.0 318147.0 0
226740.0 319669.0 0
234041.0 317734.0 0
230947.0 321691.0 0
239458.0 318587.0 0
245033.0 319073.0 0
249370.0 319117.0 0
252659.0 322006.0 0
257463.0 320124.0 0
263107.0 321469.0 0
266214.0 317655.0 0
269398.0 318632.0 0
273009.0 319476.0 0
276504.0 317861.0 0
279725.0 317861.0 0
277308.0 321742.0 0
282329.0 321282.0 0
286572.0 319615.0 0
291292.0 319796.0 0
295424.0 319879.0 0
298503.0 319292.0 0
201653.0 323831.0 0
202336.0 327185.0 0
204659.0 324203.0 0
208718.0 323839.0 0
212931.0 325424.0 0
217395.0 325033.0 0
222490.0 322395.0 0
222248.0 327027.0 0
227042.0 324510.0 0
232233.0 327310.0 0
235467.0 322470.0 0
237411.0 326737.0 0
239953.0 323482.0 0
243954.0 323603.0 0
248023.0 323114.0 0
246232.0 326543.0 0
256028.0 325832.0 0
259782.0 323932.0 0
264928.0 325827.0 0
268229.0 322384.0 0
272786.0 324032.0 0
280040.0 325661.0 0
275931.0 326125.0 0
283934.0 325302.0 0
288266.0 323708.0 0
293627.0 323865.0 0
297879.0 322647.0 0
297841.0 326417.0 0
202725.0 331312.0 0
205871.0 327902.0 0
207158.0 331826.0 0
209947.0 328357.0 0
213979.0 328301.0 0
211974.0 332118.0 0
217136.0 330363.0 0
221872.0 331917.0 0
226522.0 329132.0 0
229965.0 331881.0 0
237561.0 331626.0 0
242120.0 328126.0 0
246304.0 330237.0 0
250812.0 327584.0 0
255854.0 332191.0 0
260802.0 327857.0 0
269326.0 327315.0 0
265477.0 330691.0 0
269718.0 332348.0 0
273269.0 329640.0 0
277871.0 330079.0 0
282644.0 329836.0 0
286256.0 328034.0 0
290158.0 327949.0 0
286914.0 331400.0 0
294421.0 327935.0 0
297304.0 331021.0 0
201740.0 334802.0 0
205234.0 334956.0 0
208954.0 335281.0 0
212940.0 335976.0 0
214947.0 333509.0 0
217641.0 335641.0 0
222477.0 337165.0 0
226433.0 334228.0 0
233324.0 332758.0 0
230639.0 336210.0 0
235440.0 336354.0 0
239603.0 336797.0 0
242435.0 333184.0 0
246353.0 334230.0 0
250230.0 333060.0 0
252758.0 336715.0 0
259803.0 336319.0 0
261186.0 332600.0 0
264156.0 335885.0 0
268710.0 336888.0 0
273650.0 334767.0 0
278518.0 334502.0 0
283368.0 334728.0 0
288125.0 335596.0 0
292025.0 332583.0 0
296479.0 336438.0 0
202586.0 338176.0 0
203006.0 342493.0 0
206608.0 338202.0 0
207871.0 342192.0 0
210532.0 338751.0 0
212595.0 342582.0 0
214785.0 339299.0 0
218827.0 340414.0 0
223138.0 341729.0 0
226733.0 338649.0 0
229708.0 340240.0 0
233181.0 340032.0 0
237350.0 341948.0 0
244370.0 338172.0 0
241192.0 340619.0 0
249039.0 337739.0 0
247730.0 341962.0 0
251799.0 341489.0 0
256420.0 339448.0 0
261455.0 340022.0 0
265252.0 340014.0 0
268238.0 342101.0 0
272210.0 340050.0 0
280286.0 338036.0 0
276441.0 339090.0 0
282679.0 339434.0 0
285519.0 338773.0 0
289269.0 340485.0 0
292005.0 337616.0 0
293455.0 341182.0 0
297449.0 341178.0 0
202573.0 347074.0 0
206236.0 346700.0 0
210601.0 346568.0 0
216316.0 342755.0 0
215698.0 347029.0 0
219707.0 344423.0 0
223573.0 346176.0 0
227342.0 343256.0 0
228033.0 347595.0 0
231986.0 344523.0 0
235970.0 347160.0 0
241331.0 343841.0 0
244141.0 342851.0 0
240069.0 346793.0 0
243620.0 346407.0 0
246610.0 345314.0 0
250019.0 345860.0 0
254915.0 345896.0 0
259235.0 343598.0 0
263702.0 344725.0 0
267766.0 345629.0 0
271575.0 344770.0 0
275255.0 343697.0 0
279722.0 342666.0 0
277473.0 346221.0 0
285099.0 343465.0 0
281543.0 347123.0 0
290543.0 345191.0 0
296282.0 345954.0 0
202771.0 351144.0 0
207714.0 350720.0 0
212179.0 350753.0 0
216858.0 352003.0 0
220322.0 348777.0 0
222149.0 352856.0 0
224699.0 349798.0 0
228087.0 352457.0 0
231985.0 349715.0 0
235718.0 351636.0 0
238827.0 350753.0 0
242568.0 350216.0 0
246902.0 349520.0 0
251678.0 350979.0 0
259609.0 347809.0 0
256620.0 351240.0 0
262707.0 349301.0 0
260419.0 352521.0 0
266174.0 348873.0 0
270053.0 348515.0 0
268171.0 351750.0 0
274397.0 348110.0 0
271739.0 351819.0 0
275631.0 352280.0 0
278432.0 349663.0 0
282193.0 350663.0 0
286348.0 348835.0 0
288596.0 352419.0 0
291965.0 349521.0 0
297035.0 350885.0 0
197272.0 358095.0 0
201968.0 357319.0 0
201516.0 354518.0 0
205763.0 354847.0 0
209767.0 353732.0 0
213066.0 354071.0 0
210759.0 357286.0 0
215564.0 356496.0 0
219121.0 355633.0 0
222422.0 357785.0 0
225396.0 355671.0 0
229448.0 357270.0 0
233093.0 354859.0 0
237552.0 354686.0 0
240852.0 354127.0 0
244928.0 353873.0 0
240136.0 357754.0 0
243158.0 356979.0 0
248350.0 354263.0 0
254531.0 354825.0 0
251226.0 356967.0 0
257625.0 355683.0 0
264640.0 353011.0 0
260916.0 356435.0 0
264444.0 357082.0 0
268819.0 355741.0 0
273137.0 354611.0 0
272695.0 357540.0 0
279883.0 353335.0 0
276675.0 356433.0 0
284212.0 353678.0 0
280892.0 357002.0 0
284216.0 357255.0 0
288299.0 356487.0 0
292475.0 353587.0 0
292264.0 358018.0 0
296717.0 355596.0 0
202712.0 361235.0 0
204875.0 358484.0 0
207680.0 357969.0 0
207258.0 360981.0 0
210816.0 361950.0 0
214463.0 359833.0 0
219026.0 359721.0 0
217224.0 362690.0 0
222870.0 361755.0 0
225953.0 359673.0 0
229719.0 361583.0 0
233097.0 359630.0 0
236640.0 358330.0 0
235725.0 362799.0 0
239410.0 361538.0 0
243120.0 360308.0 0
246621.0 358049.0 0
246059.0 362949.0 0
249284.0 360903.0 0
252931.0 361125.0 0
255262.0 358474.0 0
258476.0 359466.0 0
256277.0 362295.0 0
261882.0 360575.0 0
266139.0 360365.0 0
270065.0 360532.0 0
274237.0 360844.0 0
278090.0 360459.0 0
282236.0 361021.0 0
286340.0 359923.0 0
289918.0 361810.0 0
293352.0 360765.0 0
296916.0 360139.0 0
202123.0 365005.0 0
205342.0 367170.0 0
205695.0 364023.0 0
208978.0 365425.0 0
212652.0 365948.0 0
214204.0 363527.0 0
216960.0 366742.0 0
220489.0 364142.0 0
220773.0 367580.0 0
223579.0 366220.0 0
226656.0 364107.0 0
232503.0 363604.0 0
230219.0 365972.0 0
233855.0 367009.0 0
238046.0 366347.0 0
242083.0 364506.0 0
241198.0 367981.0 0
244685.0 367540.0 0
247842.0 366309.0 0
250444.0 364464.0 0
253580.0 364155.0 0
252375.0 367190.0 0
259397.0 363506.0 0
256352.0 367033.0 0
260569.0 367920.0 0
263709.0 364696.0 0
267794.0 363860.0 0
267357.0 367108.0 0
271469.0 364890.0 0
279520.0 365140.0 0
275575.0 364325.0 0
285588.0 363363.0 0
283269.0 365150.0 0
284934.0 367694.0 0
287651.0 365658.0 0
290583.0 366475.0 0
293728.0 363758.0 0
294305.0 367701.0 0
297704.0 364029.0 0
297766.0 367241.0 0
202246.0 368385.0 0
206080.0 370334.0 0
208676.0 368823.0 0
208142.0 372459.0 0
210704.0 371918.0 0
211952.0 368957.0 0
215384.0 370451.0 0
223544.0 369626.0 0
219898.0 370557.0 0
222668.0 372846.0 0
227397.0 368804.0 0
226310.0 372867.0 0
230769.0 369029.0 0
232965.0 370532.0 0
230305.0 373265.0 0
236240.0 370480.0 0
239609.0 370940.0 0
242890.0 370516.0 0
246866.0 369810.0 0
249705.0 368895.0 0
245102.0 372483.0 0
248868.0 373502.0 0
253364.0 371703.0 0
257875.0 371895.0 0
264445.0 369232.0 0
261732.0 372261.0 0
267445.0 370739.0 0
270787.0 369124.0 0
269774.0 373174.0 0
273147.0 372372.0 0
275151.0 368538.0 0
278706.0 369300.0 0
277070.0 372676.0 0
281804.0 368540.0 0
280817.0 372342.0 0
283898.0 370480.0 0
287689.0 370164.0 0
[...]
POINT_DATA 5000
SCALARS Radius float 1
LOOKUP_TABLE default
5120.0 6182.6 6810.52 5073.35 5415.48 4834.9 3863.18 2356.98 4998.37 5492.18 5258.36 5061.3 3951.75 3163.97 3642.12 5812.43 5906.14 7513.1 5254.28 5733.48 5580.89 6110.27 5840.26 5670.04 5085.53 5351.6 5867.73 5013.56 4499.64 5542.27 5122.66 5484.19 4688.68 4402.52 4436.4 4182.53 4672.91 3588.44 5176.86 5645.7 4366.19 5553.16 3672.51 2938.66 4008.92 5561.06 6716.79 6044.04 3850.77 5325.36 5484.83 5538.89 4715.55 6059.59 5701.86 4375.68 4238.81 5054.98 6030.06 3557.27 5170.02 4927.31 5185.34 4517.56 4432.58 5903.42 3761.32 4118.05 5065.13 4940.78 3615.22 5305.17 4380.59 5546.39 6759.9 4730.36 5926.61 2720.68 4955.55 3563.63 4468.59 5885.03 5325.02 5200.76 4862.64 5205.43 6684.56 3955.56 5292.64 2635.86 6166.5 5936.02 4231.61 3379.84 7613.27 4133.88 5945.65 5418.62 7021.47 5416.38 6051.14 5836.15 4345.55 2837.58 3653.41 5246.2 5017.13 3673.74 6116.18 3968.64 7447.37 4385.06 4688.67 7184.19 4290.3 3867.67 4861.08 3942.53 3607.45 3589.27 4951.03 4094.62 4665.12 6483.19 6230.49 5493.32 4601.27 4195.44 5740.68 3261.21 4277.89 6704.06 5600.93 3871.88 3856.01 4827.23 4390.66 5279.39 4911.47 5803.39 4924.6 4733.32 2924.37 2899.43 5399.73 4003.05 4827.82 4805.87 5759.91 4333.2 3260.67 3936.02 4927.02 4174.52 5109.54 7054.71 3641.64 5747.75 5539.32 4796.33 6496.85 5541.59 4124.71 5728.85 6337.56 5863.59 4381.97 3255.82 5242.73 2812.98 4065.69 5603.15 5390.22 4712.33 5227.21 3997.1 3038.33 3383.4 4780.03 3856.1 5980.74 3829.13 6458.82 5489.43 5527.54 5054.25 7325.81 5360.19 4794.96 4874.39 4839.34 5083.08 2980.99 5525.39 3998.5 4024.3 6257.19 4737.14 4695.45 4686.65 4660.72 6038.78 5123.52 4295.38 4392.68 5495.39 4044.71 4487.31 5816.2 3091.3 5693.81 5789.98 6138.47 5573.7 4727.62 6425.26 6186.19 4840.01 6834.49 7933.0 5938.34 5555.28 6394.38 5118.27 5169.36 5834.74 5556.96 3888.21 5697.78 3921.18 4667.36 5529.52 3554.9 3996.0 4002.16 4138.16 2540.31 6029.66 6302.8 5697.4 4055.8 5206.78 5280.17 5028.96 5143.58 4484.76 5611.2 4220.65 4455.12 5173.87 5380.13 5711.87 5932.23 5788.23 6052.7 5891.05 6902.81 7199.21 5252.48 6124.89 4015.92 5708.81 4778.34 5043.05 4684.5 5120.49 5409.61 4270.95 4005.44 5555.88 6732.43 6362.12 3866.16 5152.36 4511.82 5826.64 6820.42 4894.16 4896.52 4941.22 5791.61 3798.62 5581.75 3666.57 4254.17 5615.42 4091.31 4523.7 5255.32 5337.48 5542.21 5924.89 3486.22 6894.71 4414.54 5262.61 6038.2 5094.81 5713.22 5861.71 3183.98 4524.28 5017.78 3794.63 3778.1 4727.24 6959.81 4816.2 6321.41 3372.79 5282.64 4479.66 6392.01 3369.13 6644.76 5308.1 6372.62 7565.34 5637.59 5481.78 4937.14 5551.36 5201.36 6038.14 4306.53 6135.57 5972.06 4312.67 4359.04 5015.69 6175.81 6677.09 4829.35 5813.4 4089.76 5201.67 4751.02 5184.56 3192.41 4715.72 4987.87 4669.66 5367.2 3043.85 6730.19 4907.89 4937.02 6037.08 4929.8 4049.23 3103.0 6084.86 3307.12 4467.94 5478.92 4933.21 4850.81 4723.12 5024.9 5659.17 5998.38 4270.24 4989.15 4947.52 3417.33 4164.13 4520.1 4305.57 5874.89 3791.79 5526.55 4754.05 4951.47 6084.93 3315.57 4764.96 4808.52 5607.24 5461.13 4726.76 3599.45 5655.21 5629.19 5091.39 6756.95 5601.05 3586.91 3115.91 4948.92 5810.84 5094.44 5375.47 4655.49 4809.42 4717.05 5287.2 4562.29 5423.8 5013.13 5080.66 4926.42 4642.34 5248.77 5153.74 4165.81 4293.03 4424.7 4389.21 4925.44 5246.61 5215.15 5046.33 5053.92 5839.13 5090.24 5923.5 2240.39 6324.23 4382.74 4384.42 4516.43 4749.8 4230.54 3748.24 6163.38 4566.18 3459.9 4964.09 5856.11 4234.94 4109.88 4980.85 5714.58 5110.45 3329.99 5208.32 4083.97 4528.09 3556.85 3895.51 4128.98 6291.51 5882.89 6246.22 4307.28 4100.38 5804.71 6352.26 5020.12 4073.93 3735.44 4907.06 4786.6 4645.41 5096.78 5740.84 4727.24 4612.68 4651.28 4362.19 4493.48 3693.63 3937.74 5082.6 6061.47 4093.08 4997.27 4449.22 5543.27 5628.24 3327.49 3960.8 5992.26 4923.9 4973.78 3947.47 3296.27 4607.02 4713.25 6243.0 6673.96 5174.89 4188.32 5370.52 4739.42 5538.93 3697.96 4899.11 5727.3 4242.52 4745.45 3847.38 5356.51 3057.03 5163.9 4973.83 4433.59 5530.87 3320.52 5293.9 4685.34 4151.94 5927.43 5492.26 6355.42 5244.78 5690.56 5762.84 5478.47 6142.37 5806.08 3982.23 4853.39 3130.65 5365.89 5409.33 5070.39 4511.54 4613.31 5196.0 5091.68 6119.09 4204.84 5069.25 5048.89 4288.3 5441.96 4652.29 5774.81 4495.87 5344.77 4723.48 4278.07 5281.28 5495.68 2631.9 3818.59 4863.72 6043.3 6445.94 4129.43 3912.37 4310.18 4320.28 6142.94 6342.25 3843.58 4329.05 4931.38 6082.81 3191.99 6327.9 4220.88 6640.13 5210.03 5351.39 5119.37 4583.31 4336.42 5243.29 3402.32 7589.94 5004.67 4466.03 4898.94 4178.15 4733.04 7531.29 3991.03 5935.03 3161.47 3435.9 6826.57 3746.31 4788.87 5498.32 5027.98 5346.27 5097.87 7267.18 4087.15 4143.08 5489.34 5002.48 5708.14 5952.75 4262.82 4281.49 5537.72 6332.36 4218.06 5542.14 6691.39 4602.25 4501.51 4792.73 4736.58 5513.6 4556.36 5110.37 3485.26 3240.09 5664.98 4659.59 4548.16 4048.37 5449.18 5367.52 6519.71 4714.54 3629.96 3092.35 3320.11 6022.17 6851.54 4503.89 4306.11 5903.66 4528.49 5419.37 5985.29 4247.23 4268.65 4694.83 4354.08 5788.66 4520.62 3903.75 4755.47 4485.99 6390.78 5475.8 7435.25 5543.46 6022.72 5527.33 6475.1 2691.29 6255.18 4758.21 7500.97 6623.85 3920.42 5102.36 4931.53 8332.24 7134.64 5480.13 4270.53 4790.08 4194.5 5191.63 5082.47 5344.25 5925.6 6013.14 5379.87 3708.04 4901.41 5264.06 5138.31 4551.24 4621.75 3369.23 5358.59 3688.8 4515.71 6202.55 4322.15 5025.39 5030.91 5893.5 5507.24 5101.59 3813.22 5570.3 5935.47 5234.29 5313.66 5512.23 2651.49 5275.32 5349.31 4649.22 5394.55 5509.42 4256.43 5936.36 5229.48 5475.7 4016.18 5127.16 5314.69 4244.99 6050.81 4249.46 5560.26 4643.31 5965.81 2330.66 6917.52 4969.21 5402.21 6256.02 4668.71 4277.88 7228.46 3948.23 5228.18 5787.31 4342.9 6122.55 2739.94 6155.31 5978.9 6308.71 3629.62 4187.56 4840.84 4997.27 5344.0 5135.69 4301.06 4593.7 6045.46 4763.45 5681.38 3771.48 4043.57 4478.15 4138.42 5987.17 3979.82 4602.86 2765.2 4581.13 4746.52 3856.59 4219.07 5413.79 3610.4 6387.01 6338.89 7111.16 3817.13 5023.15 4377.07 4547.19 3844.9 3695.36 3963.86 3848.93 5076.35 6020.48 5273.35 5200.05 4091.8 4645.58 5670.2 4711.62 4114.24 5166.79 2976.22 5094.52 5417.15 2682.24 4946.74 5928.32 3950.63 5415.19 4612.62 5526.75 4275.57 5435.74 5327.45 6185.89 4750.17 3702.37 5660.85 4177.19 3691.0 3990.25 4752.51 4989.09 4880.14 2845.98 5320.92 5269.18 6362.14 4406.1 6719.88 5065.11 5978.82 4553.56 4223.33 5911.67 5329.64 4716.19 6695.82 3456.98 5514.76 6405.76 4290.14 4020.32 4150.99 3815.26 5445.87 4216.92 4571.7 4271.69 5198.77 4107.03 5147.67 5643.58 4292.06 5577.04 6318.18 5006.58 5011.31 4481.53 5586.81 3948.17 3689.45 5572.95 6723.16 5372.61 5584.06 3686.21 6480.17 6445.22 4564.34 3838.56 4871.44 6248.81 6375.99 4853.02 6259.23 5181.4 3457.48 4998.21 4662.56 3405.98 3931.07 3688.16 7440.72 4681.72 4945.39 5996.33 5661.62 6631.19 3619.07 4467.04 5626.61 6385.23 5817.25 2614.4 2983.99 6363.92 3997.96 4439.35 3460.94 6184.4 3758.07 4373.45 3587.05 6229.37 4982.31 5289.52 5314.85 4305.43 5034.59 5450.44 3927.99 4942.77 5080.18 5069.84 4051.44 5266.5 5868.82 4050.9 3323.28 6049.55 5709.62 5835.78 5941.72 4877.67 3498.2 4245.72 6562.18 4704.72 4177.94 5908.1 4344.58 6048.7 4742.68 5634.83 4502.5 5499.11 5922.5 3929.19 3633.87 3970.25 4138.46 4850.01 2775.04 3821.72 5215.05 6035.6 4986.77 5137.34 5330.45 5423.0 5125.78 5077.33 3824.16 5045.38 3868.18 5350.88 5130.91 4948.5 5402.24 4527.02 4519.22 4531.14 5013.42 5651.07 4962.77 5872.05 5323.3 5088.44 4635.6 4256.67 6079.11 6430.39 5376.71 3949.6 5703.6 6326.18 4867.08 6648.68 4713.74 5407.78 5061.98 6205.93 6632.99 5830.72 4923.24 3828.81 5309.98 4236.14 6718.19 4407.87 3848.54 4307.48 5282.91 5941.4 5331.02 6510.17 4871.96 4263.33 4454.63 5742.65 4066.38 4523.88 3279.1 4241.89 4978.31 5054.74 4099.77 4981.9 4414.48 5794.24 4537.32 4541.21 4127.74 3066.13 4302.5 2476.04 4156.38 5896.46 6009.88 5495.84 6268.1 4164.68 3784.5 5782.6 5113.21 4862.21 4011.77 4374.35 4527.08 5347.48 4810.12 6396.74 6898.19 5526.14 5198.29 6449.45 3975.31 4044.45 5262.19 5344.43 6070.58 4373.47 6034.41 5452.83 5383.07 4959.34 4790.78 4591.87 4247.15 6552.22 4602.85 5210.48 7552.94 6101.92 3627.55 6239.84 5865.39 4427.28 3082.32 5370.85 3658.37 3178.54 4765.02 5629.39 4448.13 5070.29 4807.28 4266.03 5075.55 5280.69 4220.03 6923.84 4084.49 6179.96 4537.6 5147.36 4419.61 7177.44 4563.46 4082.57 5733.62 5169.9 5282.51 4425.84 3797.33 7256.35 5592.32 4800.69 4863.23 5912.61 4402.67 5381.16 4403.98 4948.98 4560.84 5227.52 5163.02 4729.43 4656.78 5105.16 5991.09 4092.24 6006.16 4678.38 5050.65 5448.61 5316.75 5022.8 4827.33 6133.92 7055.53 3719.84 4178.4 5013.67 5669.65 5253.55 5820.48 7034.11 6261.42 2586.12 6125.34 5965.78 5252.34 7099.43 2965.79 5315.4 5776.37 4516.28 5678.96 3627.82 4244.9 6048.86 4285.32 5490.43 5022.28 5197.52 5178.99 6169.11 5615.35 4027.09 4135.62 6422.84 5379.09 4502.18 5534.94 7644.38 4051.34 6004.68 6799.4 4409.63 5521.25 3661.9 5107.23 5136.08 5949.46 5558.68 3776.94 4010.57 2684.03 6157.04 4768.61 2261.36 4522.21 6191.29 5506.19 6719.94 5449.46 4950.67 6166.29 5703.07 6113.54 4662.43 6260.79 4043.66 3963.76 5528.53 6553.94 5255.18 5726.66 3004.16 5460.65 4460.92 5945.89 4105.55 4042.28 4340.76 6566.1 3555.86 6065.22 5565.13 6386.78 4470.61 6193.35 6086.96 3701.27 5233.78 4562.74 5126.91 5776.57 3942.07 5133.97 7443.72 3937.08 6600.94 5513.57 5371.02 5729.23 5260.34 5206.48 5934.22 6586.45 3780.23 5826.04 3471.03 5188.81 4359.62 3745.84 5011.84 5696.88 6057.22 5690.26 6946.21 5062.71 4289.17 5433.8 4497.59 5975.63 4274.61 6314.07 4410.55 4287.63 3921.08 4190.31 5486.68 5100.25 6894.26 4049.02 4470.4 4986.51 5311.03 5339.38 5255.12 4285.66 4896.11 5172.53 6132.95 5801.99 5266.22 4860.33 5226.97 3685.13 3312.06 5180.76 3361.26 3418.99 4480.95 4993.35 5278.36 6218.95 5222.16 5533.72 5533.42 4802.32 4599.38 5518.57 5246.47 4187.31 3240.51 7422.36 5161.01 4298.15 5227.59 4628.4 5832.37 6051.83 5453.6 5409.63 5294.77 3077.84 4709.05 4630.82 4813.08 6799.88 4540.86 3062.43 5426.78 4767.78 5652.0 5235.17 4779.5 4435.36 4421.12 5254.49 4996.99 4221.28 4456.39 4631.83 4384.88 6887.27 4806.34 6008.49 5480.83 7144.24 5653.9 3600.43 5598.74 4906.82 4788.58 5131.24 6155.1 4709.35 5196.67 6496.67 5876.71 5226.0 5624.49 3095.48 5339.78 5762.59 4166.08 4861.06 3979.26 5960.66 6608.73 3999.48 4203.26 4643.85 4730.41 3923.03 4004.04 5607.14 4156.2 6915.83 5564.02 6072.45 4470.98 6444.77 5083.41 7055.42 5683.61 5443.58 3836.45 5805.86 4558.46 5346.68 5296.29 4611.53 2681.29 3872.61 5094.48 5576.92 4238.4 4318.48 6408.83 3930.79 4004.35 4763.96 5008.63 5754.18 4270.74 5132.68 6293.89 6595.03 4983.39 5366.52 4690.55 5417.8 5146.37 7132.12 3678.08 4836.16 5151.11 5463.48 5730.33 4527.99 5545.46 4543.1 4376.7 5190.61 3764.06 4642.93 3973.12 4263.16 6642.76 6024.75 6109.49 5860.67 5987.42 5990.52 3764.1 2967.38 4835.83 5463.41 4159.35 5225.33 4929.75 4237.98 6045.22 6649.96 4614.3 4896.39 4303.19 5514.84 3633.79 6081.14 4256.57 5421.53 4220.46 4607.85 4287.53 5683.26 5612.21 5046.21 5894.61 4929.14 5687.83 5945.08 5004.23 6442.69 5474.8 6320.71 4373.3 4648.04 4750.78 6262.72 5029.78 3664.11 3365.82 5374.51 6481.79 5320.28 4569.12 4298.67 4796.58 4472.17 5873.69 4962.09 5470.77 5654.31 6062.05 5082.74 4735.33 5411.85 3999.94 4844.57 4027.46 5092.37 3901.8 4864.22 5759.46 5511.88 4512.11 6248.6 5708.99 5687.85 6401.43 5020.71 5997.88 5839.71 4360.23 6234.32 4585.31 5365.24 4586.19 5293.51 4446.06 3450.93 5097.45 4185.61 5737.75 4558.15 2761.07 3778.02 6552.21 4350.12 5227.02 5670.0 4232.16 5300.96 4344.51 5680.94 3781.77 5581.55 5193.01 6550.44 3474.5 8325.01 3860.83 5732.27 4440.81 4523.39 5941.9 5434.47 5829.22 4497.78 5567.93 4243.79 5811.18 5332.65 6451.33 6477.91 5604.35 3091.67 4332.87 6439.37 6420.81 4081.97 5401.99 5134.39 3914.2 5784.3 5769.98 6088.68 2221.99 5937.08 6070.3 5128.57 4135.08 6000.7 5620.74 5139.5 3979.54 5604.21 7493.3 4814.55 3527.05 5833.06 5698.77 6607.87 4163.5 6515.84 4143.78 4123.6 7092.87 5224.12 4850.14 4970.88 6739.08 4471.58 3637.61 5463.38 6098.14 5945.21 5750.71 3493.7 4938.74 6222.42 4200.03 3474.39 5516.95 4831.47 6939.12 4413.85 4406.4 6171.13 6853.85 2395.5 4020.4 4596.75 5941.61 3497.9 5782.48 4933.65 4031.78 6098.1 2435.33 6333.29 4074.48 4477.04 4558.47 3886.68 5731.57 5662.55 5703.74 5737.92 4747.55 3755.95 3056.7 5591.76 5889.35 5010.04 6625.18 5323.91 4275.07 5825.38 4047.87 5099.21 5742.47 6969.28 4917.99 5636.4 4367.78 4095.75 3319.67 3603.51 4298.45 5222.51 6609.84 5135.96 3834.43 5658.37 4707.06 6074.94 5491.37 4250.88 6348.03 3475.67 4792.39 5278.56 5146.37 6917.62 4013.38 5631.14 6137.8 4343.78 5433.65 4442.22 4887.76 5413.31 4669.06 3012.99 6316.56 4811.32 6400.08 4743.59 4715.58 5208.14 5580.92 3317.83 4450.7 3532.3 5151.52 5973.33 3583.21 4347.74 4643.56 5442.32 4863.01 5067.46 3580.58 5356.79 5233.29 3169.67 4312.56 4968.03 4612.06 5204.04 5304.13 5944.09 3306.14 5490.58 4863.79 3464.83 5395.14 4702.06 2477.07 5117.47 2990.77 5724.64 4538.95 4925.63 5965.15 4763.66 4888.6 7042.12 4666.81 4780.2 4797.52 6326.39 6643.85 6343.14 5501.93 5462.21 4020.95 6313.06 5374.98 6345.13 6470.3 4719.7 5313.22 5563.79 5328.22 4151.76 3905.51 4216.17 6484.17 4721.02 3546.71 3493.47 4254.37 5768.57 3374.08 4188.87 5564.23 3735.24 5950.04 4231.83 6574.95 3614.96 6817.57 6853.04 4745.43 5831.96 4539.07 5464.68 2685.81 4475.83 4510.8 7509.24 4394.56 5896.26 4570.98 5388.78 6101.13 4573.72 5599.7 4163.74 4296.69 3665.95 5698.96 6471.42 5283.8 4076.59 4428.14 5164.1 6464.15 4124.49 4972.17 4479.11 6685.4 5699.53 4222.77 4850.06 3783.54 5268.38 5527.23 7038.89 4805.33 3863.67 4814.12 6193.08 5067.56 6069.3 3352.35 2735.53 5263.3 5116.6 4008.15 4909.65 6523.86 7693.4 4286.49 6184.88 5829.32 4396.25 3763.05 5551.95 5092.24 5369.08 5291.9 4518.04 3101.75 4766.06 4009.62 4874.18 4011.37 2081.58 2511.46 2775.69 4778.82 6124.08 5467.84 3361.92 4750.58 5029.47 5053.95 6710.88 3967.48 6667.68 4923.41 4497.31 6213.04 3163.78 4305.16 4721.32 3293.56 5882.65 5092.28 5078.86 4918.77 5163.55 4819.73 6817.32 3382.7 6471.55 5085.71 4319.79 5960.56 5122.63 5774.97 6049.79 5862.86 4390.41 5226.56 4890.5 5274.19 6113.95 4050.08 5599.49 5452.42 4097.57 3436.15 5017.5 5005.85 5711.11 4575.94 5102.75 5021.88 4938.72 4597.29 5956.65 4498.25 5151.21 5931.77 5108.06 5398.64 4222.4 3573.73 4693.52 4568.41 3624.7 5262.35 3420.08 4912.04 4320.42 4691.91 4255.34 5480.3 5064.79 7046.11 3427.63 4146.81 6342.48 5756.75 4587.67 5951.81 3924.14 6918.35 6238.32 6804.79 6372.13 5369.5 5404.01 6016.19 5535.91 3230.13 5714.25 5955.86 6176.67 5325.96 5412.24 6332.01 5016.02 7044.29 4234.18 7085.01 5980.95 3936.95 6153.94 6836.82 3862.77 5887.01 5168.35 4631.99 3747.03 2783.85 5388.39 4356.49 4326.48 4437.07 3994.07 3449.37 4219.94 5491.9 6405.0 4264.91 4659.16 3918.87 5549.49 5423.42 4901.2 6605.86 6505.78 5657.36 4785.25 3619.79 6519.43 4270.15 5876.64 6306.21 5926.11 5253.37 5235.11 5211.38 3830.46 6031.67 6413.11 5529.42 5274.14 4739.14 5257.12 4636.5 5100.1 4434.19 4903.82 4940.42 3954.91 3703.1 4946.42 4371.99 5923.4 4623.61 4082.47 3295.83 2965.01 6413.02 6235.57 6263.44 4863.27 3492.19 4584.5 4118.84 6766.43 3623.87 5916.16 2315.64 4703.08 6934.37 4488.85 3731.84 3981.07 4579.69 3554.48 4901.07 5186.3 6496.52 5966.61 5325.44 4893.49 4834.87 3672.21 5760.22 5938.17 4200.09 4795.43 5097.95 4914.45 4698.87 4000.43 3984.88 4661.03 5160.59 5318.53 4732.09 4281.98 7165.9 5344.83 4701.5 4863.97 4449.98 4771.65 4840.44 5093.82 6639.64 5212.43 3687.65 5454.12 4834.3 6348.54 4066.57 5642.35 5156.76 6357.47 6101.57 4891.38 4793.65 4532.89 2949.12 4533.37 4848.46 5742.09 2779.99 5887.38 4581.37 4920.21 4049.16 5851.61 5478.11 5526.31 5030.15 3858.17 3477.1 4740.98 3185.39 5128.77 3728.18 5335.47 4526.81 5633.61 5048.19 6799.23 5907.46 6740.71 5399.29 5789.55 4633.05 5971.22 2275.45 4909.31 6522.59 5012.5 5711.62 5435.19 3562.79 5461.55 7093.13 3298.2 6865.76 5424.46 5266.01 5767.9 2978.76 2040.66 6515.8 7016.27 5384.76 6622.11 6138.12 4689.15 4428.78 6790.73 4965.89 5746.28 5659.95 5187.7 6090.91 3561.29 5409.66 4152.85 4537.14 5551.9 4219.78 4963.34 4260.92 5499.39 5644.82 4407.9 4440.57 5203.08 5412.31 5548.29 3087.09 7480.41 5163.77 6027.62 5765.42 3423.15 5010.2 6098.95 6123.03 4997.83 3718.69 3991.42 4388.63 6192.0 4514.79 2216.82 4940.28 4509.89 5885.28 6752.75 3004.34 5269.38 5607.3 4811.76 2928.82 5313.12 5498.42 3344.57 5351.56 6448.66 5220.76 6945.98 5138.2 5783.48 7001.83 4504.35 5012.97 4036.91 5589.37 5439.49 5110.11 6379.14 5216.26 4887.52 5478.95 3851.85 6318.23 4058.87 4206.98 5174.75 5932.07 4984.46 5948.71 3856.53 5460.89 6040.74 5260.85 2884.65 5393.65 5807.46 6942.34 4648.21 4393.16 3658.05 4549.69 3311.29 6423.81 6192.77 3644.78 4312.15 4078.93 5934.82 4501.78 7122.87 3572.94 4243.26 5797.36 5001.58 4153.84 4888.27 5119.86 4592.15 6487.56 5084.17 4854.11 4901.44 4998.22 5533.19 5417.21 6602.43 4383.56 4798.17 4990.79 5166.79 4953.1 4516.53 6449.64 2895.63 5818.95 3940.49 4093.99 4857.84 6464.8 4908.49 4962.21 5884.9 5089.62 3685.65 3685.13 4590.55 4673.35 5243.43 4655.16 3876.21 4741.26 5920.32 5869.4 4916.22 4186.6 3701.16 5251.4 3867.19 4345.67 4453.64 4188.3 5511.6 5019.93 5081.78 4459.28 3885.86 5235.29 4255.31 6116.33 5453.3 3838.47 4479.94 2588.37 6250.23 4718.54 5887.15 4435.51 6736.03 8659.64 5374.07 4055.54 4588.7 3766.55 5683.95 5469.13 4233.8 4976.12 5453.98 4817.16 5148.08 5653.03 5578.94 7610.49 6579.31 4286.17 5323.55 3022.6 5375.1 3804.5 4172.6 4638.18 5211.6 4196.37 5806.31 3556.79 5456.71 4453.97 3503.41 7317.04 3971.08 6412.67 6204.65 4482.9 4593.7 6550.4 4349.13 3766.69 4891.67 6818.91 3503.65 3634.5 4027.63 6631.28 6571.31 5420.67 4392.65 6413.15 6103.11 5048.55 6459.51 4024.31 4955.16 5844.72 3992.97 4147.31 5989.05 4054.22 7228.94 4441.22 4961.99 5853.89 6551.93 4595.12 3110.13 4386.8 6484.43 4625.67 3485.54 4458.64 4583.52 6418.11 6015.02 4922.49 5244.22 5585.14 7039.98 4820.17 4729.42 5089.26 3886.72 5415.45 3776.8 5096.43 6156.21 6104.26 3568.28 5583.61 5425.98 5996.66 6479.39 5079.22 4122.92 4997.91 3604.14 4684.44 4452.54 5381.54 4406.05 4749.59 4680.94 3468.42 4858.44 5799.69 5571.72 5689.26 4992.42 5297.19 6022.7 4255.85 4940.84 5895.77 5097.69 4765.72 6261.75 4517.73 5177.64 3757.34 2908.7 4039.91 6415.61 4338.08 4541.8 5660.16 6134.99 5424.88 5191.08 4062.5 4199.45 5415.85 7234.66 4207.54 6599.66 4886.12 6419.12 4936.96 6107.89 4301.61 3184.64 4446.84 5206.33 5530.49 5065.26 5660.55 4304.41 6789.23 3989.7 4157.29 5107.0 4777.03 4246.61 6212.15 3684.56 6813.72 6028.09 5327.75 5452.36 4896.65 6486.37 5561.74 6083.28 6100.73 4198.94 4745.79 5470.04 4908.75 4211.82 6556.26 5684.25 5438.92 4244.49 5036.98 5513.8 5188.53 4521.75 3429.57 5569.2 5350.88 4642.74 6735.97 5305.59 5416.45 6114.89 4330.58 5754.6 3288.01 4904.51 2202.77 6870.97 5751.15 5950.88 4149.55 5474.01 6201.86 7554.58 3380.69 4140.4 3639.44 5446.4 4725.01 5966.75 5510.9 3657.69 4505.28 4883.63 3492.83 4971.29 6280.13 3684.15 5832.29 4438.76 6006.89 6456.58 4618.73 3814.65 4159.81 3965.3 5244.98 5792.98 6592.93 4385.81 6350.71 4034.05 6436.74 2460.79 4456.11 4653.83 6063.64 4986.71 7382.3 4405.42 3598.08 2995.67 4599.81 4022.56 5522.21 5698.23 5810.77 5828.35 5089.1 2711.19 5876.72 4028.32 5236.43 3809.69 4099.92 4771.13 3208.96 7051.9 5285.07 4680.14 4608.41 4732.09 4184.23 4833.46 3988.3 5857.79 5750.07 6136.49 4642.66 6543.13 5276.7 5149.72 4687.64 4752.14 4378.3 4419.71 5411.02 4950.97 5037.06 4989.56 5175.29 5842.56 4863.96 4094.73 6200.54 5148.58 4652.01 3548.39 3583.49 3673.28 5421.64 5052.84 4858.51 3375.28 4366.74 5625.65 4603.5 4647.67 4214.44 4481.76 5375.12 5378.23 5452.78 4787.97 4356.36 3746.36 4892.44 4741.28 5069.89 4215.2 2205.51 5361.87 6502.97 4783.07 4609.02 4946.23 4852.58 4532.7 4504.86 5975.23 4473.29 4788.08 6163.54 5212.37 2628.22 6003.78 5058.51 4901.29 4124.76 4050.03 4775.04 4120.07 4813.33 4952.52 4882.66 3840.21 6746.66 5410.33 4954.76 3908.56 4844.83 5244.78 3636.15 5652.87 5483.7 5135.63 6384.7 4355.83 5952.38 5351.86 3896.27 6056.87 5230.02 5307.35 4342.18 5166.89 5491.63 5725.37 3868.62 6102.98 5138.33 3743.76 3425.69 6711.21 5510.45 4730.14 2606.