# vtk DataFile Version 2.0
Time step 25
ASCII
DATASET UNSTRUCTURED_GRID
POINTS 5000 float
152060.0 407729.0 0
160280.0 409280.0 0
336577.0 407987.0 0
342895.0 406207.0 0
348457.0 408170.0 0
139635.0 416235.0 0
143835.0 413132.0 0
148230.0 410727.0 0
147377.0 414747.0 0
152698.0 411554.0 0
151144.0 415003.0 0
155073.0 414114.0 0
156144.0 409012.0 0
158113.0 412370.0 0
161645.0 413072.0 0
164558.0 409882.0 0
168456.0 411329.0 0
173246.0 410474.0 0
178699.0 412077.0 0
183695.0 410590.0 0
189121.0 412965.0 0
192384.0 414703.0 0
196029.0 414250.0 0
201501.0 413138.0 0
207986.0 413727.0 0
213326.0 413315.0 0
218286.0 414692.0 0
222630.0 414814.0 0
225921.0 413957.0 0
230541.0 413570.0 0
235829.0 414945.0 0
241147.0 413501.0 0
252675.0 413545.0 0
259042.0 413907.0 0
268674.0 413916.0 0
273866.0 413705.0 0
278934.0 412934.0 0
286144.0 414610.0 0
291552.0 414774.0 0
297252.0 412920.0 0
303586.0 413179.0 0
311467.0 413153.0 0
317144.0 414086.0 0
322023.0 411979.0 0
327671.0 411945.0 0
332473.0 411281.0 0
335073.0 414207.0 0
338032.0 412762.0 0
342176.0 411842.0 0
347962.0 412372.0 0
345256.0 414109.0 0
352442.0 410946.0 0
352123.0 415892.0 0
357016.0 413630.0 0
134890.0 418738.0 0
130949.0 420498.0 0
138632.0 420483.0 0
144175.0 417980.0 0
148361.0 417668.0 0
151331.0 419247.0 0
154489.0 417735.0 0
158909.0 416988.0 0
163137.0 419752.0 0
165319.0 415412.0 0
170387.0 415461.0 0
175499.0 416283.0 0
180568.0 417397.0 0
185367.0 415364.0 0
189971.0 417701.0 0
194743.0 419206.0 0
199356.0 418294.0 0
204638.0 418258.0 0
214120.0 417846.0 0
209926.0 419389.0 0
218016.0 419451.0 0
222412.0 419377.0 0
227170.0 418125.0 0
232335.0 419172.0 0
237750.0 420223.0 0
243307.0 419746.0 0
246482.0 415483.0 0
248641.0 419452.0 0
252832.0 420093.0 0
257398.0 418594.0 0
263735.0 415086.0 0
262056.0 419167.0 0
266920.0 418731.0 0
271525.0 418041.0 0
276640.0 418195.0 0
281901.0 416429.0 0
282848.0 420080.0 0
287279.0 419555.0 0
292052.0 419391.0 0
298131.0 418464.0 0
303119.0 418840.0 0
307489.0 415970.0 0
307466.0 419271.0 0
311720.0 418634.0 0
316284.0 418918.0 0
321106.0 416466.0 0
324657.0 415310.0 0
324038.0 418924.0 0
327557.0 417039.0 0
331309.0 415642.0 0
334970.0 417888.0 0
338134.0 416019.0 0
338988.0 420210.0 0
342474.0 416762.0 0
345325.0 420130.0 0
347078.0 416695.0 0
349963.0 420631.0 0
357750.0 417978.0 0
354551.0 420643.0 0
362579.0 417974.0 0
367708.0 420935.0 0
124450.0 424701.0 0
120934.0 427206.0 0
127730.0 422541.0 0
127997.0 426266.0 0
134536.0 423206.0 0
130868.0 424290.0 0
138453.0 423908.0 0
140340.0 425774.0 0
142353.0 422402.0 0
147270.0 422020.0 0
151848.0 423322.0 0
156350.0 422132.0 0
160990.0 424279.0 0
168359.0 420893.0 0
165499.0 424997.0 0
174104.0 421610.0 0
179753.0 423772.0 0
184864.0 420609.0 0
189976.0 423872.0 0
196036.0 424081.0 0
201523.0 423224.0 0
209423.0 425111.0 0
205784.0 424044.0 0
214126.0 422684.0 0
218362.0 424661.0 0
222643.0 423660.0 0
226968.0 423177.0 0
232398.0 424634.0 0
237380.0 424640.0 0
241865.0 424973.0 0
246893.0 423461.0 0
251756.0 424941.0 0
257659.0 423354.0 0
262645.0 423912.0 0
267391.0 423178.0 0
272939.0 423284.0 0
278963.0 422529.0 0
282830.0 424438.0 0
289605.0 423434.0 0
295311.0 423361.0 0
300878.0 423631.0 0
306314.0 423596.0 0
311836.0 423683.0 0
320133.0 420306.0 0
316822.0 423421.0 0
321660.0 424669.0 0
330063.0 420167.0 0
325989.0 422478.0 0
334396.0 422404.0 0
339203.0 425074.0 0
342736.0 422756.0 0
347492.0 424775.0 0
354159.0 425513.0 0
358817.0 425606.0 0
359052.0 422516.0 0
363337.0 422679.0 0
366130.0 426066.0 0
372470.0 422983.0 0
369636.0 424734.0 0
373804.0 425737.0 0
376284.0 424861.0 0
113801.0 431582.0 0
117206.0 429436.0 0
120039.0 430518.0 0
124330.0 429212.0 0
128764.0 430454.0 0
132832.0 427780.0 0
136801.0 426824.0 0
136412.0 430414.0 0
140138.0 428871.0 0
144256.0 426610.0 0
148940.0 426494.0 0
146674.0 429543.0 0
149504.0 429925.0 0
153946.0 427866.0 0
158481.0 428007.0 0
162887.0 428428.0 0
166636.0 428265.0 0
169863.0 425774.0 0
170067.0 429975.0 0
174632.0 427547.0 0
184667.0 426989.0 0
188802.0 429536.0 0
193624.0 428862.0 0
199072.0 429197.0 0
204678.0 428217.0 0
215384.0 428284.0 0
219373.0 430383.0 0
222192.0 427902.0 0
227626.0 428723.0 0
234684.0 428805.0 0
238311.0 427865.0 0
241929.0 429561.0 0
246375.0 428642.0 0
251487.0 430204.0 0
255812.0 428062.0 0
260250.0 427621.0 0
266059.0 427805.0 0
271428.0 429501.0 0
278037.0 428150.0 0
284068.0 429265.0 0
286284.0 425572.0 0
288567.0 428208.0 0
292874.0 429531.0 0
298768.0 429328.0 0
303717.0 430102.0 0
306584.0 430380.0 0
309383.0 428528.0 0
313379.0 428094.0 0
318044.0 428423.0 0
322816.0 429624.0 0
325593.0 426778.0 0
329960.0 425511.0 0
334992.0 428315.0 0
343057.0 426441.0 0
346139.0 429867.0 0
350660.0 429191.0 0
358865.0 429167.0 0
361929.0 426350.0 0
363882.0 430428.0 0
367299.0 429372.0 0
371263.0 428367.0 0
379301.0 426971.0 0
376013.0 428427.0 0
378832.0 430838.0 0
382439.0 429480.0 0
386372.0 432017.0 0
106101.0 435951.0 0
109818.0 434406.0 0
113578.0 434618.0 0
111254.0 437294.0 0
117427.0 433201.0 0
119288.0 435544.0 0
121788.0 433084.0 0
123236.0 436915.0 0
125381.0 433164.0 0
128174.0 436001.0 0
132673.0 432830.0 0
139631.0 432307.0 0
136906.0 435134.0 0
143388.0 431432.0 0
141873.0 436052.0 0
147068.0 432880.0 0
151924.0 433011.0 0
156478.0 434778.0 0
160049.0 431729.0 0
165372.0 433042.0 0
173319.0 431955.0 0
170426.0 434341.0 0
180038.0 430625.0 0
185682.0 434279.0 0
191689.0 433875.0 0
196023.0 432713.0 0
199901.0 435244.0 0
204442.0 433283.0 0
209988.0 430620.0 0
212882.0 435073.0 0
216841.0 433076.0 0
221554.0 434166.0 0
226841.0 435226.0 0
232359.0 433289.0 0
238322.0 432594.0 0
242983.0 434917.0 0
248027.0 433751.0 0
252807.0 434349.0 0
257582.0 433236.0 0
262435.0 431244.0 0
266802.0 433318.0 0
271669.0 435430.0 0
277391.0 434762.0 0
282364.0 433829.0 0
287604.0 433549.0 0
292237.0 433434.0 0
296051.0 434987.0 0
299837.0 434131.0 0
303039.0 434791.0 0
307648.0 434806.0 0
311983.0 432233.0 0
316991.0 433933.0 0
321659.0 433436.0 0
325340.0 433094.0 0
329822.0 431604.0 0
332292.0 435580.0 0
336133.0 433956.0 0
340689.0 430653.0 0
349837.0 433278.0 0
345310.0 434612.0 0
352714.0 435984.0 0
354815.0 432001.0 0
360470.0 433377.0 0
364670.0 434780.0 0
368656.0 433230.0 0
374179.0 432852.0 0
378762.0 434588.0 0
382509.0 433390.0 0
386616.0 436086.0 0
390261.0 434009.0 0
390753.0 437221.0 0
394025.0 436107.0 0
95741.8 442305.0 0
102860.0 438271.0 0
99459.1 441072.0 0
103273.0 441846.0 0
107125.0 438885.0 0
111821.0 440674.0 0
115561.0 437350.0 0
119312.0 438658.0 0
116354.0 441736.0 0
121307.0 441813.0 0
125546.0 440331.0 0
129385.0 440380.0 0
132896.0 438099.0 0
137992.0 439547.0 0
145219.0 438211.0 0
148269.0 436539.0 0
152331.0 438456.0 0
157080.0 439703.0 0
161080.0 436777.0 0
164352.0 440183.0 0
167884.0 437827.0 0
171531.0 440150.0 0
174686.0 436065.0 0
180052.0 436865.0 0
189798.0 439035.0 0
195096.0 438020.0 0
203962.0 438468.0 0
208139.0 436056.0 0
211522.0 439250.0 0
217355.0 438992.0 0
223567.0 439360.0 0
236087.0 437473.0 0
240906.0 440027.0 0
250585.0 438369.0 0
256389.0 439365.0 0
262414.0 436816.0 0
267682.0 439419.0 0
272336.0 440241.0 0
281200.0 437863.0 0
286039.0 439652.0 0
291644.0 437952.0 0
299996.0 437889.0 0
304427.0 438930.0 0
312426.0 437287.0 0
317235.0 439769.0 0
322250.0 437850.0 0
327904.0 437484.0 0
333327.0 440556.0 0
337725.0 438357.0 0
340964.0 435807.0 0
341437.0 439728.0 0
344995.0 439015.0 0
348911.0 437620.0 0
352945.0 440552.0 0
357352.0 437224.0 0
361945.0 437348.0 0
365122.0 438641.0 0
369937.0 438467.0 0
375266.0 437725.0 0
379258.0 438428.0 0
378027.0 441316.0 0
381511.0 441769.0 0
382327.0 437173.0 0
385080.0 439800.0 0
389255.0 440826.0 0
394237.0 439741.0 0
397517.0 438328.0 0
397985.0 441856.0 0
400925.0 440438.0 0
92865.7 444290.0 0
89710.9 446153.0 0
96428.3 445102.0 0
99941.3 444943.0 0
103911.0 445815.0 0
107255.0 442998.0 0
107718.0 446925.0 0
110866.0 444823.0 0
113628.0 443613.0 0
114371.0 446369.0 0
118307.0 444686.0 0
124046.0 443770.0 0
127467.0 443706.0 0
125139.0 446338.0 0
131591.0 443876.0 0
134550.0 441479.0 0
137248.0 445068.0 0
142520.0 442008.0 0
141909.0 446355.0 0
147924.0 441258.0 0
145994.0 446235.0 0
150608.0 445018.0 0
153803.0 442525.0 0
157510.0 445056.0 0
160657.0 441366.0 0
163065.0 445298.0 0
167797.0 442967.0 0
172115.0 445166.0 0
176420.0 441641.0 0
180442.0 441101.0 0
184488.0 440708.0 0
180826.0 444836.0 0
188441.0 444426.0 0
193977.0 443745.0 0
199572.0 441157.0 0
204199.0 444612.0 0
207724.0 440882.0 0
209051.0 445343.0 0
213161.0 443556.0 0
218169.0 445327.0 0
224222.0 445301.0 0
229155.0 440961.0 0
234765.0 442245.0 0
244362.0 444968.0 0
246328.0 440791.0 0
249325.0 444587.0 0
252518.0 442357.0 0
255457.0 445485.0 0
262046.0 444023.0 0
268156.0 444354.0 0
272870.0 444744.0 0
277229.0 440833.0 0
281997.0 443820.0 0
287177.0 445586.0 0
292184.0 443862.0 0
296126.0 440767.0 0
301064.0 443105.0 0
308810.0 441466.0 0
313472.0 443116.0 0
310603.0 445743.0 0
317752.0 445135.0 0
320753.0 442296.0 0
324859.0 442504.0 0
329043.0 442912.0 0
338636.0 442817.0 0
343434.0 443090.0 0
348290.0 442485.0 0
352884.0 445753.0 0
357046.0 441922.0 0
358240.0 446106.0 0
361433.0 441538.0 0
366110.0 442466.0 0
370050.0 444191.0 0
367562.0 446722.0 0
374343.0 442722.0 0
378612.0 445037.0 0
382742.0 446154.0 0
385399.0 443423.0 0
386476.0 446762.0 0
388592.0 444846.0 0
391582.0 445201.0 0
392597.0 442803.0 0
395363.0 443916.0 0
398811.0 446484.0 0
401284.0 443962.0 0
404286.0 442837.0 0
404315.0 446127.0 0
407962.0 445645.0 0
82598.0 451650.0 0
86354.9 448906.0 0
86824.2 452538.0 0
93436.7 448049.0 0
89632.2 449334.0 0
97413.3 448481.0 0
95093.5 451235.0 0
98256.0 452276.0 0
101203.0 449108.0 0
105873.0 450280.0 0
110777.0 448545.0 0
114108.0 450853.0 0
117630.0 448757.0 0
121584.0 446527.0 0
120662.0 450864.0 0
124188.0 449431.0 0
128494.0 447910.0 0
126562.0 451641.0 0
132845.0 447788.0 0
135847.0 450530.0 0
139690.0 448875.0 0
143283.0 449786.0 0
146953.0 450503.0 0
149509.0 448825.0 0
153682.0 448826.0 0
[...]
POINT_DATA 5000
SCALARS Radius float 1
LOOKUP_TABLE default
4780.03 4133.88 6716.79 7613.27 4951.03 6124.89 5252.48 5495.39 3554.9 3856.1 3996.0 3936.02 4665.12 3383.4 4094.62 4834.9 3850.77 6044.04 5415.48 5120.0 3863.18 2356.98 4998.37 6182.6 5492.18 5258.36 5061.3 3642.12 3163.97 5812.43 5122.66 5906.14 7513.1 5254.28 5733.48 4672.91 5580.89 5645.7 5176.86 6810.52 5840.26 6110.27 5561.06 5073.35 5670.04 4380.59 3589.27 3607.45 5759.91 4333.2 3038.33 5529.52 7199.21 5255.32 5337.48 4049.23 4929.8 5708.81 4015.92 4487.31 4044.71 5980.74 5109.54 4927.02 5546.39 5325.36 5484.83 5085.53 5351.6 4730.36 4715.55 5867.73 3951.75 5013.56 4499.64 4375.68 5542.27 5054.98 6030.06 5170.02 5484.19 3557.27 4927.31 4688.68 4436.4 4402.52 4517.56 4182.53 5903.42 3588.44 3955.56 3761.32 4118.05 4366.19 5553.16 3672.51 2938.66 4940.78 4231.61 4008.92 3615.22 3942.53 3379.84 4827.82 3997.1 3260.67 5697.78 5123.52 4392.68 4295.38 5615.42 6037.08 4523.7 6756.95 6324.23 4329.05 4931.38 4151.94 4685.34 5601.05 4382.74 3586.91 3103.0 5481.78 5542.21 5043.05 5816.2 5693.81 6483.19 4174.52 5945.65 6759.9 5538.89 7021.47 5416.38 6059.59 4955.55 2720.68 5701.86 3563.63 4238.81 4468.59 5885.03 2837.58 5325.02 5200.76 5017.13 4862.64 5185.34 4432.58 6684.56 3968.64 4688.67 5292.64 6166.5 5065.13 5936.02 5305.17 4003.05 4861.08 5390.22 4805.87 4712.33 5227.21 4667.36 4091.31 6372.62 7565.34 2240.39 5091.39 5096.78 5293.9 4727.24 4129.43 3320.52 3843.58 4792.73 4736.58 3485.26 6082.81 5927.43 4651.28 4384.42 4362.19 4516.43 5637.59 4937.14 3115.91 3307.12 5924.89 4002.16 4138.16 3486.22 3829.13 4684.5 6230.49 5418.62 4601.27 5493.32 5740.68 5926.61 5836.15 3261.21 4345.55 6704.06 3653.41 3871.88 3856.01 5246.2 4390.66 5279.39 3673.74 5205.43 6116.18 7447.37 4924.6 2635.86 4385.06 4733.32 7184.19 2899.43 2924.37 3867.67 4290.3 5399.73 4660.72 3888.21 6038.78 6902.81 4254.17 5629.19 5090.24 5923.5 4612.68 4973.83 3912.37 6142.94 4194.5 4602.25 4270.53 5191.63 5344.25 4043.57 5379.87 4501.51 3708.04 4556.36 3240.09 5110.37 5664.98 3191.99 6327.9 6355.42 3693.63 5690.56 4948.92 5762.84 4493.48 6084.86 5478.92 4778.34 6894.71 3091.3 4414.54 6458.82 7054.71 5489.43 3641.64 5747.75 4277.89 6051.14 4796.33 4195.44 5539.32 5360.19 6496.85 5600.93 4874.39 5541.59 4124.71 5728.85 4827.23 4911.47 5803.39 5863.59 4381.97 6257.19 3255.82 5242.73 2812.98 4065.69 5603.15 4695.45 6052.7 3798.62 3921.18 5891.05 3666.57 5308.1 6644.76 4786.6 5655.21 4433.59 5740.84 5530.87 4281.49 6342.25 6691.39 4790.08 5082.47 5344.0 4593.7 4763.45 4150.99 3771.48 4478.15 5681.38 4138.42 5925.6 6013.14 5513.6 4901.41 5138.31 5264.06 4659.59 4048.37 5492.26 5244.78 3937.74 4749.8 5810.84 5094.44 5551.36 4655.49 4467.94 4850.81 5789.98 6138.47 5527.54 5573.7 4727.62 5054.25 4055.8 7325.81 5280.17 4794.96 6186.19 5083.08 6834.49 6337.56 5525.39 3998.5 4024.3 6394.38 5555.28 4737.14 4686.65 5556.96 5788.23 5581.75 6392.01 6730.19 4907.89 4937.02 3735.44 4073.93 4645.41 5952.75 6445.94 4310.18 4218.06 7134.64 5978.9 4187.56 3629.62 4997.27 4840.84 5135.69 6045.46 5445.87 4216.92 4704.72 4177.94 4107.03 3929.19 4271.69 5198.77 5147.67 5987.17 4292.06 3979.82 2765.2 5006.58 4602.86 3688.8 4548.16 3369.23 5449.18 4220.88 6519.71 6640.13 3092.35 5082.6 5210.03 5478.47 4230.54 6142.37 3748.24 6061.47 4933.21 5375.47 6038.14 2540.31 6029.66 5120.49 5262.61 6302.8 5697.4 6038.2 4270.95 4005.44 5206.78 5555.88 6732.43 6425.26 5143.58 4484.76 4839.34 4840.01 2980.99 5611.2 7933.0 4455.12 5173.87 5938.34 5380.13 5711.87 5118.27 5169.36 5932.23 5834.74 4479.66 3369.13 5367.2 3043.85 5461.13 3599.45 4907.06 5163.9 6043.3 5537.72 4320.28 6332.36 5542.14 4931.53 5480.13 2739.94 6308.71 4716.19 5514.76 4301.06 3456.98 4290.14 4020.32 3815.26 4245.72 5908.1 4571.7 4742.68 4344.58 5634.83 5782.6 5113.21 4862.21 5922.5 4502.5 3970.25 3633.87 4850.01 5643.58 5577.04 5011.31 4481.53 5586.81 4621.75 4581.13 4551.24 5358.59 3610.4 4515.71 5367.52 4322.15 4714.54 3629.96 3320.11 5351.39 5119.37 6163.38 4566.18 4723.12 3459.9 4964.09 5201.36 5024.9 4306.53 5409.61 5094.81 5972.06 5713.22 5861.71 5028.96 4359.04 3866.16 3794.63 6362.12 3778.1 5152.36 4511.82 4220.65 6820.42 4816.2 4894.16 4896.52 4751.02 3372.79 4941.22 5282.64 5791.61 4669.66 4808.52 5046.33 5607.24 4726.76 5839.13 3847.38 5495.68 5489.34 5002.48 5708.14 3920.42 4262.82 6122.55 4223.33 6155.31 5911.67 6695.82 6405.76 4877.67 3498.2 6562.18 3066.13 4302.5 4541.21 6048.7 5896.46 5495.84 5022.8 6268.1 5820.48 7034.11 6261.42 4011.77 5499.11 4527.08 5347.48 2775.04 5215.05 4138.46 3821.72 4986.77 6318.18 3948.17 5330.45 3856.59 4219.07 5413.79 6387.01 6202.55 5025.39 5893.5 5030.91 6022.17 4583.31 3982.23 5806.08 4997.27 4853.39 4093.08 4809.42 4717.05 5659.17 6135.57 4312.67 5423.8 3183.98 4989.15 5017.78 4524.28 5015.69 6175.81 4727.24 6677.09 5826.64 6959.81 4829.35 5201.67 6321.41 4089.76 5526.55 5184.56 3192.41 4715.72 4987.87 3315.57 5804.71 4764.96 4242.52 5053.92 6352.26 3057.03 4087.15 3818.59 4143.08 4863.72 6623.85 5102.36 8332.24 4342.9 4553.56 5329.64 6049.55 3323.28 5709.62 5835.78 5794.24 5105.16 6006.16 4156.38 5316.75 6009.88 4164.68 7055.53 6133.92 3784.5 3719.84 4178.4 5934.22 3471.03 5253.55 5011.84 6946.21 2586.12 5433.8 6125.34 4374.35 5965.78 4810.12 6898.19 6035.6 5137.34 5423.0 5077.33 4746.52 3689.45 5572.95 6338.89 5584.06 7111.16 3817.13 4547.19 5023.15 5507.24 6851.54 4503.89 5570.3 4336.42 5243.29 7589.94 4449.22 3130.65 5543.27 5856.11 5287.2 4109.88 5998.38 4234.94 5013.13 4270.24 5080.66 3417.33 4926.42 4164.13 4642.34 4520.1 4947.52 5874.89 4305.57 4293.03 4389.21 3791.79 4925.44 4424.7 4754.05 6084.93 5215.15 4307.28 3697.96 4739.42 5538.93 5020.12 5727.3 2631.9 5281.28 5356.51 4277.88 4758.21 7228.46 7500.97 3948.23 5228.18 5787.31 5065.11 3927.99 5069.84 4051.44 4241.89 5054.74 5941.72 4127.74 2476.04 4678.38 5448.61 5050.65 4827.33 5513.57 5013.67 5729.23 5669.65 5624.49 3095.48 3780.23 4861.06 4166.08 6481.79 6608.73 3979.26 4359.62 5188.81 3745.84 6057.22 5062.71 4497.59 4156.2 5975.63 5252.34 6396.74 2965.79 7099.43 5526.14 5198.29 6449.45 3975.31 5125.78 5344.43 3824.16 3868.18 6723.16 5372.61 3686.21 6480.17 6445.22 4377.07 3844.9 5101.59 3813.22 3848.93 4306.11 5935.47 3402.32 5903.66 5628.24 5004.67 3327.49 5365.89 5992.26 4562.29 3960.8 5070.39 4980.85 5714.58 5110.45 5208.32 5248.77 4083.97 4607.02 5153.74 4528.09 3895.51 4165.81 5813.4 6291.51 4128.98 5882.89 6246.22 4951.47 4188.32 5246.61 4100.38 5344.77 4723.48 5097.87 4899.11 4745.45 4278.07 7267.18 6255.18 4668.71 5269.18 4406.1 6362.14 6719.88 5978.82 5266.5 5868.82 4050.9 4066.38 4978.31 4099.77 4981.9 4537.32 5163.02 5991.09 4656.78 3942.07 5126.91 5133.97 7443.72 3937.08 5371.02 5260.34 5206.48 5826.04 6586.45 5226.0 5339.78 5762.59 5374.51 5320.28 5224.12 4298.67 4796.58 5960.66 5873.69 3999.48 4962.09 5654.31 4203.26 4730.41 5696.88 3923.03 5690.26 4004.04 5607.14 4289.17 5564.02 4274.61 4410.55 4287.63 5315.4 4516.28 3627.82 4044.45 5262.19 4373.47 6070.58 5045.38 5350.88 5130.91 5402.24 4519.22 4531.14 4564.34 3695.36 3963.86 5076.35 6020.48 6375.99 5200.05 5234.29 4528.49 5313.66 5419.37 4466.03 5409.33 4511.54 5196.0 4923.9 4973.78 3329.99 3947.47 3296.27 4713.25 4204.84 6243.0 6673.96 3556.85 5441.96 3435.9 5174.89 4288.3 5370.52 4652.29 5774.81 3746.31 5498.32 5027.98 5346.27 6475.1 4969.21 2691.29 6256.02 5320.92 4305.43 5314.85 5034.59 4942.77 4263.33 5080.18 4454.63 4523.88 3279.1 4403.98 4948.98 4560.84 5227.52 4729.43 4414.48 4092.24 4562.74 7144.24 3600.43 6600.94 4788.58 6155.1 4709.35 5876.71 4750.78 4373.3 5029.78 4123.6 3365.82 4163.5 7092.87 4143.78 4850.14 4970.88 6739.08 4763.66 4797.52 4471.58 4569.12 3637.61 6098.14 4472.17 6222.42 4938.74 5470.77 4643.85 4831.47 6062.05 5082.74 5411.85 6915.83 5092.37 6072.45 6444.77 6314.07 3921.08 5776.37 4190.31 5678.96 4244.9 5490.43 6034.41 5452.83 4959.34 4948.5 4527.02 5383.07 4591.87 5013.42 3838.56 4871.44 5651.07 6248.81 5273.35 4645.58 2651.49 5512.23 5275.32 4898.94 4613.31 4733.04 6119.09 5788.66 5091.68 7531.29 5069.25 5048.89 3161.47 3991.03 6390.78 7435.25 6826.57 4788.87 4495.87 6022.72 4643.31 5527.33 5402.21 4989.09 4880.14 2845.98 4982.31 5289.52 3848.54 5941.4 5450.44 6510.17 5742.65 5592.32 5381.16 5912.61 6193.35 6086.96 5233.78 5776.57 5683.26 5598.74 4906.82 5687.83 5131.24 5196.67 6496.67 5474.8 6262.72 3664.11 6515.84 4538.95 5724.64 5965.15 4666.81 7042.12 5163.55 6326.39 6817.32 4319.79 6643.85 6343.14 5501.93 5463.38 5945.21 5750.71 3493.7 6470.3 3474.39 4200.03 6939.12 4735.33 4406.4 4413.85 4844.57 4864.22 4027.46 4470.98 5759.46 5083.41 7055.42 5486.68 6048.86 4285.32 6894.26 5022.28 5197.52 5178.99 5615.35 4790.78 4247.15 6552.22 5379.09 4602.85 5872.05 4091.8 4853.02 6259.23 5181.4 5670.2 4711.62 5985.29 4247.23 4178.15 4694.83 4268.65 5509.42 4354.08 4256.43 5936.36 4520.62 3903.75 4755.47 5935.03 4485.99 5127.16 5475.8 5314.69 6050.81 5543.46 4249.46 5965.81 3702.37 5660.85 2330.66 4177.19 6917.52 3587.05 6229.37 6718.19 5282.91 4307.48 4425.84 7256.35 5331.02 4871.96 4800.69 4863.23 4402.67 4470.61 5565.13 4384.88 6887.27 3701.27 4806.34 5653.9 5046.21 5894.61 5004.23 5139.5 6442.69 4814.55 6320.71 4648.04 3527.05 6607.87 5117.47 2990.77 3163.78 4925.63 4888.6 5078.86 4780.2 4636.5 4819.73 4940.42 3382.7 3954.91 6471.55 5085.71 2965.01 5644.82 6263.44 5960.56 4863.27 4118.84 5774.97 4020.95 5862.86 5462.21 6313.06 6345.13 4719.7 5516.95 5313.22 3905.51 3999.94 6171.13 3901.8 3497.9 2395.5 5941.61 5511.88 4512.11 6248.6 3836.45 5443.58 5683.61 5100.25 4049.02 4470.4 4986.51 5339.38 6169.11 4027.09 6422.84 4502.18 5210.48 4962.77 7552.94 6101.92 5088.44 5323.3 4998.21 4662.56 4114.24 5349.31 4649.22 5394.55 5094.52 4946.74 2682.24 5928.32 5229.48 5475.7 4016.18 5526.75 5435.74 4244.99 5327.45 5560.26 6185.89 3997.96 4750.17 4439.35 3460.94 3990.25 3691.0 4752.51 3758.07 4236.14 4407.87 5282.51 3797.33 5945.89 4105.55 6566.1 3555.86 6386.78 4996.99 4631.83 4896.39 6081.14 5480.83 6008.49 4287.53 5612.21 4929.14 5945.08 3979.54 7493.3 5944.09 5833.06 5698.77 2477.07 3464.83 4497.31 4721.32 4305.16 5882.65 3293.56 5092.28 4739.14 4918.77 5100.1 4434.19 4371.99 6090.91 3703.1 4946.42 5923.4 5081.78 3295.83 4459.28 4260.92 5499.39 6250.23 6413.02 3492.19 4584.5 5122.63 6766.43 6049.79 2315.64 4703.08 5374.98 4390.41 5226.56 5274.19 5599.49 4097.57 5452.42 5017.5 5328.22 5563.79 6853.85 4020.4 4596.75 5782.48 4933.65 6098.1 4558.46 5805.86 5346.68 5296.29 5311.03 5255.12 4611.53 4285.66 4896.11 4238.4 5172.53 4135.62 5801.99 5534.94 4860.33 7644.38 4051.34 3627.55 6239.84 4635.6 4256.67 5166.79 3457.48 3931.07 3405.98 2976.22 5417.15 3688.16 4681.72 4945.39 5996.33 3950.63 5415.19 4612.62 3619.07 4275.57 4467.04 6385.23 2983.99 2614.4 6363.92 6205.93 4923.24 5830.72 6184.4 3828.81 4373.45 4082.57 5733.62 5169.9 3004.16 4460.92 5235.17 4779.5 4042.28 4421.12 4340.76 5254.49 6065.22 4221.28 4456.39 5514.84 3633.79 5421.53 4607.85 4220.46 5128.57 6000.7 5604.21 3169.67 5204.04 4968.03 3361.92 5304.13 5490.58 4863.79 3967.48 4702.06 4923.41 6213.04 3830.46 6413.11 5529.42 5274.14 4903.82 5257.12 5746.28 5187.7 3561.29 4082.47 4219.78 4623.61 4188.3 4963.34 5019.93 3885.86 5235.29 4517.73 5177.64 4255.31 5660.16 6116.33 4541.8 4479.94 6134.99 5453.3 4718.54 4407.9 6736.03 4440.57 6235.57 5548.29 5412.31 3623.87 5916.16 6934.37 4890.5 3731.84 6113.95 4050.08 3981.07 4901.07 5186.3 3436.15 4151.76 6484.17 3493.47 4721.02 4254.37 3374.08 4031.78 5564.23 5950.04 5708.99 4231.83 5687.85 6401.43 5020.71 2681.29 5094.48 5839.71 3872.61 5576.92 4318.48 6132.95 5266.22 5226.97 3685.13 3312.06 6004.68 3361.26 6799.4 5278.36 5865.39 4427.28 6079.11 6430.39 3082.32 7440.72 3949.6 5703.6 6326.18 5661.62 6631.19 6648.68 4713.74 5626.61 5817.25 5407.78 4084.49 5061.98 6632.99 4537.6 5147.36 4419.61 7177.44 4563.46 5309.98 6553.94 5255.18 5460.65 4767.78 5463.41 5225.33 4929.75 4435.36 6045.22 6649.96 4303.19 5134.39 5784.3 4256.57 3914.2 6088.68 5937.08 6070.3 4135.08 5620.74 5233.29 4312.56 4612.06 5467.84 3306.14 4750.58 6710.88 5395.14 5235.11 5211.38 6031.67 5384.76 6138.12 4428.78 4965.89 5243.43 4152.85 5659.95 4537.14 5551.9 4453.64 5511.6 4765.72 3757.34 6261.75 6415.61 4338.08 4752.14 4687.64 4378.3 4419.71 4888.12 5037.06 4950.97 5512.16 4989.56 4094.73 5175.29 3838.47 2588.37 5842.56 5887.15 4435.51 5203.08 3087.09 5374.07 7480.41 3423.15 5163.77 4488.85 4579.69 3554.48 6496.52 5005.85 4216.17 4575.94 4938.72 3546.71 5768.57 4188.87 3735.24 6574.95 2435.33 4074.48 6333.29 4558.47 5731.57 5997.88 5662.55 5737.92 6408.83 5365.24 3930.79 4004.35 4763.96 5754.18 5180.76 3418.99 4480.95 4993.35 4409.63 5521.25 3661.9 5370.85 5949.46 3658.37 3178.54 4765.02 5376.71 4448.13 5070.29 4807.28 4867.08 4266.03 5280.69 4220.03 6923.84 5449.46 6179.96 6113.54 4662.43 6260.79 3963.76 5528.53 6799.88 3062.43 5726.66 5426.78 5652.0 2967.38 4159.35 6477.91 4237.98 6439.37 4081.97 4614.3 3532.3 5580.92 5769.98 5442.32 2221.99 4643.56 4863.01 5356.79 4778.82 5657.36 6124.08 5029.47 5053.95 5926.11 6667.68 5767.9 6515.8 6622.11 3685.13 4689.15 6790.73 4655.16 5920.32 5409.66 5251.4 3867.19 4345.67 5097.69 2908.7 5857.79 4039.91 4642.66 5276.7 5036.58 5469.47 5329.59 6119.63 5411.02 4752.9 3197.63 4287.16 5301.47 4863.96 5191.08 4062.5 5415.85 8659.64 4588.7 3766.55 5683.95 6027.62 5010.2 5765.42 6123.03 4997.83 5966.61 5711.11 5325.44 5021.88 5956.65 4597.29 4200.09 4498.25 5931.77 5151.21 5398.64 6817.57 3614.96 4477.04 3886.68 5703.74 4747.55 3056.7 4360.23 3755.95 6234.32 5293.51 4586.19 4446.06 5008.63 3450.93 5132.68 4270.74 6595.03 4558.15 6218.95 5222.16 5107.23 5136.08 5558.68 3776.94 4010.57 5629.39 2684.03 6157.04 4768.61 2261.36 5075.55 4522.21 5506.19 6719.94 4950.67 5227.59 6166.29 5453.6 5703.07 5294.77 4709.05 4630.82 4043.66 4813.08 5860.67 5990.52 4540.86 4835.83 5604.35 6316.56 3091.67 4332.87 6420.81 4715.58 5401.99 5151.52 5973.33 3583.21 5291.9 5067.46 4009.62 2511.46 3580.58 4011.37 2775.69 4785.25 3619.79 6519.43 5876.64 6306.21 5266.01 5253.37 2040.66 7016.27 5089.62 4590.55 4741.26 5869.4 4916.22 3701.16 4186.6 6022.7 4255.85 4732.09 3988.3 6136.49 6543.13 5149.72 4356.25 5776.96 4216.95 5742.74 5464.25 3821.94 4244.21 5486.48 4617.55 4947.24 3645.12 5199.44 6200.54 5424.88 5148.58 4199.45 6599.66 4055.54 5469.13 4233.8 4976.12 6098.95 5453.98 3991.42 4893.49 4388.63 4834.87 5102.75 3672.21 5760.22 5938.17 4795.43 5097.95 3573.73 5108.06 4693.52 6853.04 4745.43 3420.08 5831.96 5464.68 5591.76 4585.31 6625.18 5323.91 6293.89 5097.45 2761.07 5737.75 4983.39 5366.52 4690.55 5533.72 5533.42 4802.32 3678.08 4599.38 5246.47 4187.31 6191.29 3240.51 7422.36 5161.01 4298.15 4628.4 5832.37 6051.83 4642.93 5409.63 3973.12 4263.16 3077.84 6024.75 6109.49 5567.93 5987.42 5332.65 3764.1 6451.33 5413.31 3012.99 6400.08 4743.59 5208.14 3317.83 4450.7 3763.05 5092.24 5369.08 3101.75 4347.74 4518.04 4766.06 2081.58 4874.18 6505.78 5461.55 4270.15 6865.76 5424.46 4857.84 4908.49 2978.76 4962.21 4749.59 5884.9 4858.44 3685.65 3468.42 3876.21 4673.35 5689.26 4992.42 5297.19 4940.84 5895.77 4833.46 5750.07 5933.7 4757.74 4809.67 6045.67 4209.49 3946.28 5984.81 5439.9 5367.73 4409.27 4640.06 3875.05 3456.47 3540.11 5471.74 4652.01 5421.64 3673.28 7234.66 4886.12 4207.54 3375.28 5625.65 6419.12 6107.89 4446.84 4817.16 5660.55 5148.08 3718.69 4514.79 2216.82 4509.89 6752.75 5269.38 5607.3 2928.82 4914.45 4222.4 4698.87 4000.43 4568.41 3624.7 4912.04 4691.91 4539.07 2685.81 4475.83 4510.8 5889.35 5010.04 4394.56 4570.98 4275.07 5825.38 4185.61 4047.87 5742.47 3778.02 6552.21 5417.8 5146.37 7132.12 4836.16 5518.57 5151.11 5463.48 5730.33 5545.46 4527.99 4376.7 4543.1 5190.61 8325.01 3764.06 4440.81 5941.9 5434.47 6642.76 5829.22 4497.78 4243.79 5811.18 5433.65 4442.22 4008.15 4887.76 4669.06 4811.32 4286.49 6184.88 5829.32 4396.25 5551.95 3918.87 5549.49 5423.42 6605.86 5012.5 5435.19 3298.2 4953.1 6449.64 6464.8 4684.44 4680.94 5828.35 5799.69 5571.72 3809.69 4771.13 7051.9 4608.41 4351.38 4184.23 4144.57 5550.75 7248.4 5466.33 5280.12 4444.97 5721.05 3498.16 4209.31 4247.69 4514.39 4588.99 4321.21 4344.34 5950.45 3548.39 5713.03 3583.49 4858.51 4928.27 5052.84 4366.74 5297.16 4301.61 3184.64 5206.33 5530.49 5065.26 5653.03 6192.0 4940.28 5885.28 3004.34 5323.55 3022.6 4811.76 5375.1 5313.12 5351.56 4661.03 3984.88 5160.59 5262.35 4320.42 4255.34 5064.79 5480.3 7509.24 5896.26 4146.81 5388.78 6101.13 4573.72 5099.21 4917.99 4367.78 5636.4 4350.12 5227.02 5670.0 4232.16 5300.96 4344.51 5680.94 3781.77 5581.55 5193.01 3474.5 6550.44 3860.83 6348.03 5732.27 4523.39 5278.56 5146.37 6917.62 4013.38 5631.14 4343.78 3352.35 5263.3 4909.65 6523.86 7693.4 4326.48 4437.07 3449.37 5491.9 6405.0 4659.16 5789.55 2275.45 4633.05 4901.2 5711.62 4383.56 4990.79 3562.79 7093.13 4516.53 5818.95 4122.92 4093.99 3940.49 3604.14 4452.54 4406.05 5089.1 4028.32 5876.72 5236.43 3208.96 4884.59 5285.07 3858.06 4680.14 4083.79 4187.94 5980.59 6834.41 3796.15 6226.14 4801.8 3000.29 7216.98 5271.02 7013.17 5718.28 6242.79 4601.74 6506.86 5088.57 5580.34 5849.65 3852.6 5134.67 4165.21 5775.31 4215.0 4603.5 4936.96 4647.67 4481.76 5375.12 5452.78 4356.36 4892.44 4304.41 5578.94 7610.49 4286.17 3684.56 6579.31 6028.09 5452.36 4172.6 3804.5 6486.37 5498.42 3344.57 5318.53 4732.09 5220.76 4281.98 7165.9 5344.83 7046.11 3427.63 4863.97 6342.48 5756.75 4587.67 5599.7 4163.74 6969.28 3665.95 5698.96 4095.75 3319.67 3603.51 4298.45 5222.51 6609.84 5135.96 3834.43 5658.37 4707.06 6074.94 5491.37 4250.88 3783.54 3475.67 4792.39 7038.89 3863.67 4814.12 5067.56 6137.8 2735.53 5116.6 3747.03 2783.85 4356.49 3994.07 4526.81 4219.94 5907.46 6740.71 4264.91 5399.29 5971.22 4909.31 6522.59 4798.17 5425.98 5166.79 6479.39 2895.63 4405.42 4997.91 5079.22 5381.54 5810.77 4714.83 2711.19 5474.15 7519.2 4099.92 6355.68 4478.6 4511.7 3953.55 4304.63 5263.27 6300.92 5021.77 4173.54 3928.53 5599.29 6038.68 5046.12 3834.47 4807.4 3805.67 4590.01 6101.86 4227.41 5993.0 4803.57 5966.42 3332.49 4110.59 4706.5 5354.66 4214.44 5378.23 4787.97 4981.43 3746.36 6789.23 3989.7 4777.03 4246.61 5327.75 4609.02 4896.65 4638.18 4196.37 6448.66 4453.97 6945.98 5138.2 5783.48 4701.5 4449.98 4504.35 4771.65 4840.44 5093.82 5951.81 3924.14 6918.35 4296.69 6238.32 6804.79 6471.42 4076.59 5283.8 5369.5 4428.14 5164.1 6464.15 4479.11 4972.17 6685.4 5699.53 4222.77 6332.01 5268.38 5527.23 4805.33 7085.01 5980.95 6193.08 6069.3 5887.01 5168.35 5388.39 3728.18 5335.47 5633.61 5048.19 6799.23 4888.27 4592.15 6487.56 4854.11 4998.22 5533.19 5417.21 6602.43 3568.28 5583.61 6063.64 5996.66 7382.3 2995.67 3598.08 4599.81 5698.23 7300.58 3608.06 4923.57 6633.61 5217.95 4867.7 5484.36 4277.24 4063.9 4469.54 4314.56 5291.05 5161.1 4619.2 5606.51 5166.41 5740.65 5067.56 2596.96 6349.67 6329.53 4350.15 4139.3 6541.45 4750.49 5078.31 5391.48 4923.43 5131.15 4847.14 3950.27 5116.66 3566.79 5003.78 5374.67 6246.56 4741.28 4215.2 5069.89 4157.29 6212.15 6813.72 4783.07 4946.23 6083.28 5211.6 5806.31 3556.79 5456.71 3503.41 7317.04 6412.67 7001.83 5012.97 5589.37 5439.49 6639.64 5212.43 5454.12 4834.3 6348.54 4066.57 5642.35 6372.13 5404.01 6016.19 4124.49 3230.13 5714.25 6176.67 5325.96 4850.06 5016.02 7044.29 4234.18 4920.21 4049.16 3936.95 6153.94 6836.82 3862.77 4631.99 4740.98 3185.39 5128.77 7122.87 5797.36 4243.26 4153.84 5119.86 5089.26 5084.17 4901.44 3776.8 5096.43 6156.21 6104.26 4653.83 6171.71 4986.71 4668.88 4022.56 5522.21 5027.43 3772.3 4855.01 6208.9 3340.09 6059.93 5602.53 6061.63 2279.05 4829.35 4075.28 8137.11 5484.32 6650.77 4067.96 4824.12 7104.73 6162.3 5701.75 4264.54 3516.27 7043.44 4263.78 4263.65 4643.9 5228.75 6047.14 5009.83 5210.38 4642.2 5717.8 3629.44 3683.86 4918.76 3299.24 5293.75 4208.41 4061.6 5826.78 2603.64 5473.72 5107.0 2856.55 4553.68 6502.97 3758.22 4757.2 3205.68 4852.58 5561.74 6100.73 4745.79 4788.08 5470.04 4908.75 3971.08 6204.65 4482.9 4036.91 4593.7 4349.13 5110.11 6379.14 5216.26 3687.65 4887.52 5478.95 3851.85 6318.23 4206.98 5156.76 6357.47 6101.57 4891.38 5535.91 2949.12 5955.86 4533.37 4848.46 5412.24 2779.99 5887.38 4