# vtk DataFile Version 2.0
Time step 31
ASCII
DATASET UNSTRUCTURED_GRID
POINTS 5000 float
193597.0 382125.0 0
308249.0 383106.0 0
179679.0 390049.0 0
185371.0 386911.0 0
187447.0 390580.0 0
191018.0 386527.0 0
195232.0 388325.0 0
205563.0 388007.0 0
298934.0 388125.0 0
304147.0 386521.0 0
309217.0 387964.0 0
314276.0 387783.0 0
176268.0 392522.0 0
180287.0 392996.0 0
183020.0 390305.0 0
183694.0 394847.0 0
188287.0 395128.0 0
192254.0 391755.0 0
198272.0 388958.0 0
196933.0 392558.0 0
201645.0 391647.0 0
211226.0 388988.0 0
216329.0 390396.0 0
221423.0 389959.0 0
223811.0 393567.0 0
226583.0 391622.0 0
231057.0 391558.0 0
236044.0 393744.0 0
240974.0 391405.0 0
246290.0 393256.0 0
252608.0 392138.0 0
258883.0 392021.0 0
263622.0 392277.0 0
268458.0 391336.0 0
273482.0 391656.0 0
278274.0 390339.0 0
283536.0 391603.0 0
288546.0 392659.0 0
293306.0 389664.0 0
301717.0 391650.0 0
306093.0 391976.0 0
310439.0 392131.0 0
314158.0 392386.0 0
319601.0 391649.0 0
324960.0 393430.0 0
170113.0 396428.0 0
166478.0 399099.0 0
170823.0 399491.0 0
174634.0 396137.0 0
172867.0 394218.0 0
175385.0 399880.0 0
178290.0 396024.0 0
181245.0 399620.0 0
192179.0 396899.0 0
186510.0 399838.0 0
196897.0 397745.0 0
201388.0 399452.0 0
203770.0 395753.0 0
208536.0 393886.0 0
212351.0 397680.0 0
215549.0 394825.0 0
219654.0 394357.0 0
222751.0 397406.0 0
227599.0 396150.0 0
232713.0 397520.0 0
238054.0 398931.0 0
243468.0 397715.0 0
248583.0 397105.0 0
252541.0 398511.0 0
256990.0 396694.0 0
261475.0 396041.0 0
266680.0 396354.0 0
270944.0 395596.0 0
275897.0 396276.0 0
280299.0 394812.0 0
283564.0 396297.0 0
280478.0 398706.0 0
287363.0 396915.0 0
292508.0 395144.0 0
297873.0 394088.0 0
295224.0 398794.0 0
299802.0 397653.0 0
302872.0 395569.0 0
308272.0 399150.0 0
308706.0 395497.0 0
311728.0 397995.0 0
311963.0 394893.0 0
315532.0 396109.0 0
314913.0 400141.0 0
318952.0 396317.0 0
318421.0 399164.0 0
322610.0 397331.0 0
325959.0 399844.0 0
326683.0 396802.0 0
330102.0 396943.0 0
328901.0 400452.0 0
334094.0 400420.0 0
158128.0 404660.0 0
162281.0 401548.0 0
165722.0 402808.0 0
162931.0 405542.0 0
166761.0 405840.0 0
168646.0 402431.0 0
170141.0 405630.0 0
171886.0 402298.0 0
174426.0 405260.0 0
178594.0 403701.0 0
182470.0 404190.0 0
191544.0 402328.0 0
197537.0 403587.0 0
203613.0 403734.0 0
207304.0 399670.0 0
211347.0 401241.0 0
214587.0 403163.0 0
217768.0 399069.0 0
225231.0 400787.0 0
221537.0 401635.0 0
229397.0 400823.0 0
233889.0 403125.0 0
238212.0 403345.0 0
242243.0 402792.0 0
247238.0 401228.0 0
251801.0 403449.0 0
256398.0 401422.0 0
261630.0 400686.0 0
266312.0 400786.0 0
271699.0 400934.0 0
276903.0 400986.0 0
280489.0 403028.0 0
283704.0 404396.0 0
284645.0 400633.0 0
290140.0 400993.0 0
304221.0 400025.0 0
299560.0 401759.0 0
303365.0 404565.0 0
307569.0 403415.0 0
311089.0 401674.0 0
314054.0 404017.0 0
318242.0 403257.0 0
321193.0 400993.0 0
322536.0 405130.0 0
324121.0 401401.0 0
326995.0 403736.0 0
330867.0 403659.0 0
334722.0 405604.0 0
338799.0 402239.0 0
342946.0 405296.0 0
338720.0 405593.0 0
146869.0 410673.0 0
150298.0 408353.0 0
154008.0 406772.0 0
153113.0 410248.0 0
156333.0 409811.0 0
159913.0 408808.0 0
164303.0 409794.0 0
168372.0 409318.0 0
172208.0 408712.0 0
177970.0 408359.0 0
182123.0 407705.0 0
183844.0 410075.0 0
186577.0 405707.0 0
191848.0 407743.0 0
196129.0 408921.0 0
200816.0 408176.0 0
209742.0 405074.0 0
205767.0 408654.0 0
214482.0 408624.0 0
219218.0 405576.0 0
224025.0 404785.0 0
222747.0 408319.0 0
228875.0 407023.0 0
235931.0 407360.0 0
239506.0 406409.0 0
242870.0 408243.0 0
246920.0 406376.0 0
251278.0 408215.0 0
255752.0 406693.0 0
259426.0 404299.0 0
264310.0 405105.0 0
260511.0 408204.0 0
269271.0 407575.0 0
275737.0 406540.0 0
281743.0 407610.0 0
286101.0 406657.0 0
290180.0 407704.0 0
294874.0 405057.0 0
299005.0 407579.0 0
296269.0 409555.0 0
302149.0 408173.0 0
306461.0 407897.0 0
311155.0 406869.0 0
313583.0 410561.0 0
316750.0 407866.0 0
321752.0 410304.0 0
326507.0 407720.0 0
330349.0 406832.0 0
329820.0 410162.0 0
333820.0 410335.0 0
339045.0 410061.0 0
343396.0 410466.0 0
347098.0 408254.0 0
351591.0 410848.0 0
137577.0 416469.0 0
143758.0 412518.0 0
140787.0 414663.0 0
150083.0 411823.0 0
146840.0 414378.0 0
150505.0 415478.0 0
153784.0 413584.0 0
156644.0 412852.0 0
156597.0 416214.0 0
160104.0 413044.0 0
159798.0 416567.0 0
163425.0 413404.0 0
166613.0 413676.0 0
170863.0 413003.0 0
174363.0 415036.0 0
174667.0 410880.0 0
177282.0 412685.0 0
180621.0 411641.0 0
183777.0 414384.0 0
187874.0 411231.0 0
193152.0 413678.0 0
198840.0 412715.0 0
202988.0 412116.0 0
210033.0 410331.0 0
206971.0 414085.0 0
212095.0 414318.0 0
219700.0 410455.0 0
216546.0 413401.0 0
224023.0 412409.0 0
228630.0 414890.0 0
233352.0 411642.0 0
239180.0 411083.0 0
243307.0 414037.0 0
247778.0 411676.0 0
252473.0 412231.0 0
257215.0 411994.0 0
264611.0 410364.0 0
268735.0 413422.0 0
274430.0 413210.0 0
278934.0 411145.0 0
283702.0 412812.0 0
287295.0 410170.0 0
293504.0 409733.0 0
290692.0 412396.0 0
295174.0 412696.0 0
299554.0 411727.0 0
304387.0 411742.0 0
309761.0 411261.0 0
313026.0 413847.0 0
317438.0 413413.0 0
322799.0 416167.0 0
326561.0 412585.0 0
331598.0 414673.0 0
336514.0 414818.0 0
344039.0 413396.0 0
341151.0 415187.0 0
347096.0 412653.0 0
345543.0 415952.0 0
353264.0 415101.0 0
349835.0 415290.0 0
355565.0 412419.0 0
358559.0 413495.0 0
360763.0 415153.0 0
134737.0 418593.0 0
131246.0 420640.0 0
140048.0 419271.0 0
137137.0 421616.0 0
143975.0 416970.0 0
148393.0 418969.0 0
153072.0 417547.0 0
152526.0 421667.0 0
155806.0 419695.0 0
159083.0 419570.0 0
163413.0 417396.0 0
168898.0 417530.0 0
173492.0 419298.0 0
178819.0 417096.0 0
183447.0 418841.0 0
188164.0 417297.0 0
193090.0 420100.0 0
197349.0 417434.0 0
202313.0 416587.0 0
209641.0 418293.0 0
214727.0 417956.0 0
220367.0 417566.0 0
226007.0 419412.0 0
231591.0 419826.0 0
236033.0 416513.0 0
240890.0 418871.0 0
246103.0 417903.0 0
250485.0 416239.0 0
255965.0 418000.0 0
262164.0 415370.0 0
267063.0 418715.0 0
271554.0 417191.0 0
279169.0 415119.0 0
276090.0 418784.0 0
282535.0 418885.0 0
287915.0 416667.0 0
293264.0 416294.0 0
291567.0 420249.0 0
297599.0 416357.0 0
302393.0 416024.0 0
307701.0 415448.0 0
311614.0 416609.0 0
310607.0 420616.0 0
315541.0 418557.0 0
319470.0 417230.0 0
325589.0 420351.0 0
327406.0 416926.0 0
330690.0 419642.0 0
334675.0 418117.0 0
338969.0 419476.0 0
343754.0 419392.0 0
348208.0 418915.0 0
350169.0 421968.0 0
351928.0 418312.0 0
356562.0 416906.0 0
363620.0 417131.0 0
360438.0 418088.0 0
363141.0 420475.0 0
366534.0 419513.0 0
370018.0 421793.0 0
120682.0 426851.0 0
124135.0 425434.0 0
127973.0 422710.0 0
127515.0 425631.0 0
133834.0 421914.0 0
131300.0 424199.0 0
134653.0 424155.0 0
137959.0 425596.0 0
140521.0 423301.0 0
144124.0 422127.0 0
145495.0 426236.0 0
148625.0 423819.0 0
152549.0 426323.0 0
156761.0 423673.0 0
159869.0 426036.0 0
161270.0 422284.0 0
163636.0 425724.0 0
165595.0 421288.0 0
170105.0 422077.0 0
167409.0 424993.0 0
173591.0 424298.0 0
176821.0 421961.0 0
180689.0 422248.0 0
185563.0 422666.0 0
189203.0 421071.0 0
190275.0 424367.0 0
199785.0 421964.0 0
195265.0 424994.0 0
205354.0 420698.0 0
208856.0 424789.0 0
212425.0 421376.0 0
213530.0 425304.0 0
216730.0 422312.0 0
221593.0 423824.0 0
227312.0 425120.0 0
236608.0 422165.0 0
245855.0 422404.0 0
250130.0 423740.0 0
251559.0 420122.0 0
255185.0 424155.0 0
261583.0 422412.0 0
267378.0 423657.0 0
271461.0 421636.0 0
279034.0 423270.0 0
283621.0 425091.0 0
287246.0 421824.0 0
290974.0 425040.0 0
295663.0 423045.0 0
300186.0 420717.0 0
303394.0 424138.0 0
305586.0 420238.0 0
307803.0 425024.0 0
311529.0 424239.0 0
315284.0 423791.0 0
320887.0 421722.0 0
325435.0 424915.0 0
328465.0 422886.0 0
331951.0 423543.0 0
329870.0 426573.0 0
335002.0 421979.0 0
338226.0 423732.0 0
342803.0 423883.0 0
346874.0 422498.0 0
354219.0 421210.0 0
351474.0 425005.0 0
359072.0 422093.0 0
362946.0 424163.0 0
366152.0 423177.0 0
368734.0 425606.0 0
373235.0 423808.0 0
376560.0 425442.0 0
114307.0 431769.0 0
117754.0 428931.0 0
117775.0 431938.0 0
121895.0 430055.0 0
125284.0 428249.0 0
126792.0 431167.0 0
129645.0 427995.0 0
133600.0 426991.0 0
131949.0 430995.0 0
136057.0 429699.0 0
139355.0 428980.0 0
142126.0 426448.0 0
141862.0 430220.0 0
145525.0 430019.0 0
148747.0 427641.0 0
150794.0 431403.0 0
156379.0 429223.0 0
161735.0 429699.0 0
170445.0 426127.0 0
167187.0 429312.0 0
172981.0 429398.0 0
177256.0 426194.0 0
181851.0 426669.0 0
183627.0 430674.0 0
186588.0 427317.0 0
188252.0 431156.0 0
191839.0 428407.0 0
199361.0 427017.0 0
196384.0 429940.0 0
203594.0 425812.0 0
206366.0 429673.0 0
211555.0 429737.0 0
217517.0 427651.0 0
222825.0 429338.0 0
232850.0 425337.0 0
230693.0 428683.0 0
234514.0 429421.0 0
236824.0 426577.0 0
238919.0 430014.0 0
241400.0 425074.0 0
242916.0 429784.0 0
246562.0 427228.0 0
251119.0 428258.0 0
255869.0 429787.0 0
260323.0 428144.0 0
265577.0 428833.0 0
270663.0 426766.0 0
274823.0 424996.0 0
279913.0 428481.0 0
287504.0 426630.0 0
285175.0 429800.0 0
290003.0 429846.0 0
294724.0 428259.0 0
299747.0 426847.0 0
304236.0 427462.0 0
307266.0 429620.0 0
312109.0 427996.0 0
317086.0 428357.0 0
318905.0 425467.0 0
322122.0 428006.0 0
327071.0 429717.0 0
332087.0 430932.0 0
334914.0 426997.0 0
339789.0 427919.0 0
344426.0 428143.0 0
347941.0 426331.0 0
351727.0 429021.0 0
355809.0 426433.0 0
356563.0 430962.0 0
360827.0 427439.0 0
361150.0 431765.0 0
364584.0 429692.0 0
365298.0 426988.0 0
368275.0 429494.0 0
375424.0 428809.0 0
371802.0 427118.0 0
372053.0 430850.0 0
379759.0 427545.0 0
378234.0 430805.0 0
383143.0 429287.0 0
381272.0 431480.0 0
385960.0 431096.0 0
107481.0 435137.0 0
104686.0 436775.0 0
110316.0 433167.0 0
109607.0 436585.0 0
112674.0 435283.0 0
116799.0 435756.0 0
120716.0 434130.0 0
124275.0 433825.0 0
129321.0 433119.0 0
127307.0 435731.0 0
131480.0 434665.0 0
134189.0 436721.0 0
138721.0 432075.0 0
135235.0 433213.0 0
137875.0 435397.0 0
141864.0 433911.0 0
146079.0 433737.0 0
[...]
POINT_DATA 5000
SCALARS Radius float 1
LOOKUP_TABLE default
5120.0 5073.35 4133.88 4834.9 6044.04 5415.48 3863.18 6182.6 5840.26 6110.27 5670.04 6716.79 4665.12 4094.62 3850.77 5546.39 5325.36 5085.53 2356.98 5351.6 4998.37 5492.18 5258.36 5061.3 3642.12 3163.97 5812.43 5122.66 5906.14 5484.19 7513.1 5254.28 4436.4 5733.48 4672.91 5580.89 5645.7 5176.86 6810.52 3672.51 5561.06 3615.22 4380.59 7613.27 4951.03 4780.03 5495.39 3856.1 3383.4 3936.02 5980.74 4927.02 6483.19 5484.83 5945.65 5538.89 4730.36 4715.55 5867.73 5013.56 3951.75 4499.64 4375.68 5542.27 5054.98 6030.06 5170.02 3557.27 4927.31 4688.68 4402.52 4517.56 4182.53 5903.42 3588.44 3761.32 3955.56 4118.05 4366.19 5553.16 5065.13 2938.66 4940.78 4231.61 4008.92 3942.53 3379.84 4827.82 4805.87 3607.45 3589.27 5759.91 3038.33 4333.2 5529.52 4295.38 7199.21 6124.89 5252.48 3554.9 5708.81 4015.92 3996.0 4487.31 4044.71 5816.2 5109.54 4174.52 6759.9 7021.47 5416.38 6059.59 2720.68 4955.55 5701.86 4238.81 3563.63 4468.59 5885.03 2837.58 5325.02 5200.76 5017.13 4862.64 5185.34 4432.58 6684.56 3968.64 4688.67 2635.86 5292.64 6166.5 5305.17 5936.02 4290.3 4861.08 4003.05 4712.33 5227.21 3997.1 5697.78 3260.67 5123.52 4392.68 5615.42 5255.32 6037.08 4523.7 4382.74 4049.23 5337.48 3586.91 4929.8 5481.78 5542.21 5043.05 4002.16 5693.81 3829.13 3091.3 6230.49 5418.62 4601.27 5493.32 5926.61 5740.68 6051.14 5836.15 4345.55 3261.21 6704.06 3653.41 3871.88 3856.01 5246.2 4390.66 5279.39 3673.74 5205.43 4827.23 6116.18 7447.37 4924.6 4385.06 4733.32 7184.19 2924.37 2899.43 3867.67 5399.73 5390.22 3888.21 6038.78 6902.81 4667.36 4091.31 4254.17 6372.62 7565.34 5091.39 6756.95 6324.23 4329.05 4151.94 4685.34 5601.05 4651.28 4384.42 4516.43 3103.0 4948.92 5637.59 3115.91 3307.12 4937.14 5924.89 4778.34 4138.16 3486.22 4684.5 5789.98 6458.82 7054.71 5489.43 3641.64 4277.89 5747.75 5054.25 4195.44 4796.33 5539.32 5360.19 6496.85 5600.93 4874.39 5541.59 4124.71 5728.85 4911.47 5803.39 5863.59 4381.97 6257.19 3255.82 2812.98 5242.73 4065.69 5603.15 4695.45 4660.72 3921.18 5891.05 5308.1 6644.76 5629.19 5090.24 2240.39 5923.5 5096.78 4612.68 4129.43 5293.9 4727.24 3320.52 3843.58 4931.38 4736.58 6082.81 5110.37 5927.43 6355.42 4362.19 5690.56 3693.63 4493.48 6084.86 5478.92 5551.36 6894.71 4414.54 6138.47 6029.66 5527.54 5573.7 4727.62 4055.8 7325.81 5280.17 6425.26 4794.96 6186.19 4839.34 5083.08 6834.49 6337.56 5525.39 3998.5 4024.3 5938.34 6394.38 5555.28 4737.14 5169.36 4686.65 5556.96 6052.7 3798.62 5581.75 6392.01 3666.57 4907.89 4937.02 5655.21 4786.6 5740.84 5530.87 4973.83 4281.49 3912.37 6142.94 4194.5 4602.25 4270.53 5191.63 5344.25 4043.57 5379.87 4792.73 4501.51 3485.26 4556.36 3240.09 5664.98 3191.99 6327.9 4048.37 5492.26 5244.78 5762.84 3937.74 4749.8 5082.6 5810.84 5094.44 4230.54 4655.49 4467.94 4850.81 6038.14 2540.31 5120.49 6302.8 5262.61 5697.4 6038.2 4270.95 4005.44 5206.78 5555.88 6732.43 5143.58 4484.76 4840.01 2980.99 5611.2 7933.0 4455.12 5173.87 5380.13 5711.87 5118.27 4941.22 5932.23 5834.74 4479.66 5788.23 5367.2 3043.85 5461.13 6730.19 4907.06 3735.44 4073.93 5163.9 4645.41 4433.59 6445.94 4310.18 6342.25 4218.06 6691.39 4790.08 5082.47 4840.84 5344.0 4593.7 5681.38 4478.15 4138.42 5925.6 3708.04 6013.14 5513.6 4901.41 5138.31 5264.06 3688.8 4659.59 4548.16 5449.18 4220.88 6519.71 6640.13 5478.47 3748.24 6142.37 6061.47 4933.21 5375.47 4566.18 4723.12 4964.09 5201.36 4306.53 5024.9 5409.61 5094.81 5972.06 5713.22 5861.71 5028.96 3183.98 3794.63 3866.16 4524.28 6362.12 3778.1 5152.36 4511.82 5826.64 4220.65 6820.42 4816.2 4894.16 4896.52 3372.79 4751.02 5184.56 5282.64 5791.61 3369.13 4808.52 5607.24 4726.76 3599.45 5839.13 5495.68 5489.34 6043.3 5952.75 4320.28 5542.14 4931.53 7134.64 5480.13 5978.9 6308.71 3629.62 4187.56 4997.27 6045.46 5135.69 4301.06 4763.45 3815.26 4150.99 5445.87 4216.92 4107.03 3929.19 3771.48 4271.69 5198.77 5147.67 5987.17 3979.82 2765.2 5006.58 4602.86 4581.13 3369.23 4621.75 4551.24 5358.59 4515.71 5367.52 4322.15 3092.35 5210.03 4714.54 3320.11 5351.39 5119.37 3982.23 6163.38 3459.9 4997.27 4093.08 4809.42 4717.05 5659.17 6135.57 4312.67 5423.8 4359.04 4989.15 5017.78 5015.69 6175.81 4727.24 6677.09 6959.81 4829.35 5201.67 6321.41 4089.76 5526.55 3192.41 4987.87 4715.72 3315.57 4669.66 5804.71 4764.96 5046.33 4242.52 5053.92 6352.26 3847.38 4087.15 3818.59 4863.72 5002.48 5708.14 5537.72 4262.82 3920.42 6332.36 6122.55 2739.94 4223.33 5911.67 4716.19 5514.76 3456.98 4290.14 4020.32 4877.67 4704.72 4245.72 4177.94 4571.7 4344.58 4742.68 5634.83 5113.21 4502.5 5499.11 5922.5 3633.87 5643.58 3970.25 4850.01 5577.04 4292.06 5011.31 6318.18 4481.53 5586.81 3856.59 4219.07 5413.79 3610.4 6387.01 6202.55 5025.39 3629.96 5893.5 5030.91 6022.17 4583.31 4503.89 5806.08 4853.39 5243.29 4449.22 5543.27 5856.11 5287.2 4109.88 4234.94 5998.38 5013.13 4270.24 5080.66 3417.33 4926.42 4164.13 4642.34 4520.1 4947.52 5874.89 4305.57 4293.03 5813.4 4389.21 3791.79 4925.44 4424.7 4754.05 4951.47 6084.93 5215.15 4739.42 5020.12 5727.3 5281.28 5356.51 4277.88 3057.03 4758.21 4143.08 7500.97 6623.85 5102.36 8332.24 4342.9 6155.31 5329.64 3323.28 6695.82 6405.76 5835.78 6562.18 3498.2 3066.13 5908.1 4541.21 6048.7 5896.46 5495.84 4164.68 6268.1 7034.11 5782.6 4862.21 4527.08 5347.48 4810.12 2775.04 4138.46 5215.05 4986.77 3821.72 5137.34 5330.45 3948.17 5077.33 4746.52 5572.95 6338.89 5584.06 7111.16 3817.13 4547.19 5507.24 6851.54 5570.3 3813.22 4336.42 4306.11 7589.94 3130.65 5628.24 5004.67 5365.89 3327.49 3960.8 5992.26 4562.29 5070.39 4980.85 5714.58 5110.45 5208.32 5248.77 4083.97 4607.02 5153.74 3895.51 4528.09 4165.81 4128.98 6291.51 5882.89 6246.22 4188.32 5246.61 4307.28 4100.38 3697.96 4723.48 5538.93 4899.11 4745.45 2631.9 6255.18 4668.71 7228.46 3948.23 5228.18 5787.31 5065.11 4553.56 5069.84 4051.44 6049.55 5709.62 5941.72 5794.24 5105.16 4302.5 6006.16 4156.38 6009.88 5316.75 5022.8 7055.53 3784.5 6133.92 3719.84 4178.4 5934.22 5253.55 5820.48 6946.21 2586.12 6261.42 6125.34 4011.77 5965.78 4374.35 6396.74 6898.19 6035.6 5198.29 5423.0 3975.31 3689.45 5125.78 3824.16 3868.18 6723.16 5372.61 3686.21 6480.17 5023.15 4377.07 3844.9 3695.36 5101.59 3963.86 3848.93 6020.48 5935.47 3402.32 5903.66 4528.49 5419.37 4466.03 4511.54 5409.33 5196.0 4923.9 3329.99 4973.78 3947.47 3296.27 5091.68 4713.25 4204.84 6243.0 6673.96 3556.85 5441.96 3435.9 5174.89 4288.3 5370.52 4652.29 5774.81 3746.31 5344.77 5027.98 5097.87 5346.27 4278.07 7267.18 6256.02 2691.29 5320.92 5269.18 4406.1 6362.14 6719.88 5034.59 3927.99 5978.82 5266.5 5868.82 4066.38 4050.9 4978.31 4241.89 4099.77 5054.74 4981.9 4127.74 4537.32 2476.04 5991.09 4678.38 5448.61 5050.65 3937.08 4827.33 5513.57 5013.67 5729.23 5669.65 5826.04 3780.23 5624.49 3095.48 4861.06 3979.26 3471.03 6608.73 4359.62 3745.84 5011.84 6057.22 5062.71 5433.8 4497.59 5975.63 5252.34 2965.79 7099.43 5526.14 5315.4 6449.45 4044.45 5344.43 4373.47 5045.38 6034.41 5350.88 5130.91 5402.24 4519.22 6445.22 4564.34 4871.44 5076.35 6375.99 5200.05 5234.29 5313.66 2651.49 5512.23 5275.32 4898.94 4178.15 4613.31 4733.04 6119.09 5788.66 7531.29 5069.25 5048.89 5935.03 3161.47 3991.03 6390.78 7435.25 6826.57 4788.87 4495.87 6022.72 5498.32 5527.33 4643.31 6475.1 4969.21 4880.14 2845.98 5289.52 4982.31 5314.85 4305.43 5450.44 6510.17 4942.77 4263.33 5080.18 4454.63 4523.88 3279.1 4948.98 5227.52 4414.48 4729.43 5163.02 4656.78 4092.24 4562.74 5126.91 3942.07 5133.97 7443.72 5371.02 5260.34 5206.48 6586.45 5226.0 5339.78 4166.08 6481.79 5762.59 5320.28 4298.67 5960.66 4962.09 3999.48 4203.26 5188.81 4730.41 5696.88 5690.26 4156.2 4289.17 5564.02 4274.61 4410.55 6314.07 4287.63 5776.37 3627.82 4516.28 5678.96 5262.19 4244.9 6070.58 5022.28 5452.83 4959.34 4948.5 4527.02 4591.87 4531.14 4247.15 5013.42 3838.56 5651.07 6248.81 4602.85 5872.05 5273.35 4091.8 4645.58 5181.4 5985.29 4247.23 4268.65 4694.83 5509.42 4354.08 4256.43 5936.36 4520.62 3903.75 4755.47 4485.99 5127.16 5475.8 5314.69 6050.81 5543.46 4249.46 5965.81 3702.37 5660.85 2330.66 4177.19 6917.52 5402.21 4989.09 6718.19 4307.48 3848.54 5941.4 5331.02 4871.96 5742.65 5592.32 5381.16 5912.61 4403.98 4560.84 6086.96 5233.78 5776.57 7144.24 3600.43 6600.94 4788.58 6155.1 4709.35 5876.71 4373.3 4750.78 5029.78 3365.82 5374.51 4123.6 7092.87 5224.12 4970.88 4850.14 4471.58 4796.58 4569.12 6098.14 5873.69 6222.42 5654.31 5470.77 4643.85 3923.03 4004.04 6062.05 5607.14 5082.74 6915.83 5092.37 6072.45 4027.46 6444.77 5759.46 3921.08 4190.31 7055.42 5486.68 6048.86 5490.43 4285.32 4986.51 5197.52 5178.99 5383.07 5615.35 4790.78 6422.84 6552.22 5379.09 5210.48 4962.77 7552.94 4853.02 6259.23 5088.44 5670.2 4711.62 4662.56 4114.24 5349.31 4649.22 2976.22 5394.55 5094.52 4946.74 2682.24 5928.32 5229.48 5475.7 4016.18 5526.75 5435.74 4244.99 5327.45 5560.26 6185.89 3997.96 4750.17 3460.94 3990.25 6184.4 3691.0 3758.07 4752.51 3587.05 4236.14 6229.37 4407.87 5282.91 4425.84 3797.33 7256.35 4800.69 4863.23 3555.86 4402.67 4470.61 6386.78 5565.13 4631.83 6193.35 6887.27 3701.27 4806.34 5683.26 5598.74 4906.82 5131.24 5687.83 5004.23 5196.67 6442.69 6496.67 5474.8 4648.04 6262.72 4163.5 3664.11 4143.78 4538.95 5965.15 6739.08 4763.66 7042.12 4797.52 6326.39 6343.14 5501.93 3637.61 5463.38 4472.17 5945.21 5750.71 4938.74 3474.39 4200.03 4831.47 6939.12 4735.33 5411.85 4413.85 4844.57 4470.98 4864.22 3901.8 5511.88 5083.41 6248.6 3836.45 5683.61 5100.25 6894.26 5311.03 5339.38 5255.12 6169.11 4896.11 4027.09 4135.62 4502.18 5801.99 5534.94 7644.38 4051.34 6101.92 3627.55 5323.3 4635.6 4998.21 4256.67 3457.48 5166.79 3931.07 3405.98 5417.15 3688.16 4681.72 4945.39 5996.33 3950.63 5415.19 4612.62 3619.07 4275.57 4467.04 6385.23 2983.99 2614.4 6363.92 6205.93 4439.35 5830.72 3828.81 4373.45 4082.57 5733.62 5169.9 5282.51 3004.16 4460.92 5945.89 4042.28 4105.55 6566.1 6065.22 4221.28 4996.99 4896.39 4384.88 6081.14 5480.83 6008.49 4220.46 5653.9 5046.21 4929.14 5894.61 5139.5 7493.3 4814.55 6320.71 5833.06 3527.05 6607.87 6515.84 5117.47 5724.64 2990.77 4925.63 4888.6 4666.81 5078.86 5163.55 4780.2 4819.73 6817.32 6263.44 4319.79 5960.56 6643.85 5774.97 4020.95 5462.21 6313.06 6345.13 3493.7 6470.3 4719.7 5516.95 4406.4 5313.22 3905.51 3999.94 6171.13 2395.5 3497.9 5941.61 4512.11 4933.65 6098.1 5443.58 4558.46 5805.86 4049.02 5346.68 4470.4 5296.29 4611.53 2681.29 5094.48 4285.66 4238.4 5172.53 4318.48 6132.95 5266.22 4860.33 3685.13 3312.06 6004.68 6799.4 6239.84 5865.39 6079.11 3082.32 6430.39 7440.72 3949.6 5703.6 6326.18 5661.62 6631.19 6648.68 4713.74 5626.61 5817.25 5407.78 4084.49 5061.98 6632.99 4537.6 4923.24 5147.36 4419.61 7177.44 5309.98 4563.46 6553.94 5255.18 5460.65 4767.78 5235.17 4779.5 4421.12 4340.76 4435.36 5254.49 6649.96 4456.39 5514.84 3633.79 3914.2 5421.53 4607.85 5612.21 4287.53 5128.57 6000.7 5945.08 3169.67 3979.54 4968.03 5304.13 5944.09 4863.79 4702.06 5698.77 3464.83 2477.07 4497.31 3163.78 4721.32 4305.16 3293.56 5882.65 4739.14 4918.77 4636.5 5100.1 4940.42 3382.7 3954.91 6471.55 5085.71 5923.4 3295.83 2965.01 5644.82 6413.02 4863.27 4118.84 5122.63 5862.86 6766.43 6049.79 5374.98 5226.56 5274.19 5599.49 4097.57 5017.5 5563.79 6853.85 4151.76 4020.4 3493.47 4721.02 4596.75 4254.37 5782.48 4031.78 5708.99 5687.85 6401.43 5020.71 5997.88 5839.71 3872.61 5576.92 6408.83 3930.79 4004.35 5226.97 5754.18 5180.76 3361.26 4480.95 3418.99 5278.36 4409.63 5521.25 4427.28 5370.85 3661.9 5949.46 3658.37 3178.54 4765.02 5376.71 4448.13 5070.29 4807.28 2261.36 4867.08 4266.03 5280.69 4220.03 6923.84 5449.46 6179.96 6113.54 4662.43 6260.79 3963.76 5528.53 6799.88 5726.66 5652.0 5426.78 5463.41 5225.33 4929.75 6045.22 4614.3 4303.19 5134.39 5784.3 4256.57 6088.68 5937.08 4135.08 6070.3 5620.74 5233.29 5604.21 4312.56 4612.06 5204.04 3361.92 3306.14 5490.58 5395.14 4923.41 3967.48 6213.04 3830.46 6413.11 5092.28 5529.42 5274.14 4434.19 4903.82 5746.28 3703.1 4371.99 4946.42 6090.91 3561.29 4219.78 4963.34 5081.78 4188.3 5019.93 4459.28 5235.29 4260.92 5499.39 4479.94 6250.23 4407.9 3492.19 4440.57 4584.5 6235.57 5548.29 3623.87 2315.64 5916.16 4703.08 6934.37 4390.41 4890.5 6113.95 3731.84 4050.08 3981.07 4901.07 5452.42 5186.3 5328.22 3436.15 4216.17 6484.17 4938.72 3546.71 3374.08 5768.57 5564.23 3735.24 5950.04 4231.83 6574.95 2435.33 4074.48 6333.29 4558.47 5731.57 5662.55 5737.92 4360.23 5365.24 5293.51 4763.96 5008.63 5132.68 6595.03 4993.35 6218.95 5222.16 5107.23 5136.08 5558.68 3776.94 4010.57 5629.39 2684.03 6157.04 4768.61 5075.55 4522.21 5506.19 6719.94 4950.67 5227.59 6166.29 5453.6 5703.07 5294.77 4709.05 4630.82 4043.66 4813.08 5860.67 3062.43 4540.86 5990.52 4835.83 2967.38 4159.35 5604.35 6477.91 4237.98 3091.67 6439.37 4081.97 5401.99 5580.92 3532.3 5769.98 5442.32 2221.99 4643.56 4863.01 5356.79 4778.82 6124.08 5467.84 4750.58 5053.95 6710.88 6667.68 5235.11 5211.38 6031.67 5384.76 6138.12 5257.12 4428.78 4965.89 5187.7 5659.95 4082.47 4152.85 4623.61 5511.6 4453.64 3885.86 6261.75 5177.64 4517.73 4338.08 5660.16 4255.31 4541.8 6116.33 6134.99 5453.3 4718.54 3838.47 2588.37 6736.03 5203.08 5412.31 3087.09 5374.07 7480.41 5163.77 3423.15 6027.62 4488.85 4579.69 3554.48 6496.52 5005.85 5711.11 4575.94 5325.44 5021.88 5956.65 4498.25 4188.87 5151.21 5398.64 6817.57 3614.96 4477.04 3886.68 5703.74 4747.55 3056.7 3755.95 6234.32 5591.76 4586.19 4585.31 6625.18 4446.06 5323.91 3450.93 4270.74 5097.45 6293.89 5737.75 4558.15 2761.07 4983.39 5366.52 4690.55 5533.72 5533.42 4802.32 3678.08 4599.38 5246.47 4187.31 6191.29 7422.36 3240.51 5161.01 4298.15 4628.4 5832.37 6051.83 4642.93 5409.63 3973.12 4263.16 3077.84 6024.75 6109.49 5567.93 5987.42 5332.65 3764.1 6451.33 6316.56 4332.87 6420.81 4715.58 3317.83 4450.7 5151.52 5973.33 3583.21 4347.74 5291.9 5067.46 4009.62 3580.58 2511.46 4011.37 2775.69 5657.36 6519.43 3619.79 5876.64 5029.47 6306.21 5926.11 5253.37 5767.9 6515.8 6622.11 4689.15 3685.13 6790.73 4655.16 5243.43 4741.26 5409.66 5920.32 4537.14 4186.6 5251.4 5551.9 3867.19 4345.67 4765.72 2908.7 3757.34 6415.61 4642.66 4752.14 5276.7 4378.3 4687.64 4419.71 4888.12 4950.97 5037.06 4989.56 5175.29 5842.56 4094.73 5191.08 4062.5 5887.15 4435.51 5415.85 8659.64 4588.7 5683.95 3766.55 5469.13 5765.42 5010.2 6098.95 6123.03 5966.61 4997.83 4893.49 4388.63 4834.87 5102.75 4597.29 4200.09 5931.77 5097.95 5108.06 3573.73 4693.52 6853.04 3420.08 4745.43 5831.96 4912.04 5464.68 2685.81 4510.8 5889.35 5010.04 4570.98 4275.07 5825.38 4185.61 4047.87 5742.47 3778.02 6552.21 5417.8 5146.37 7132.12 4836.16 5518.57 5151.11 5463.48 5730.33 5545.46 4527.99 4376.7 4543.1 5190.61 8325.01 4440.81 3764.06 5941.9 5434.47 6642.76 5829.22 4497.78 4243.79 5811.18 5433.65 4442.22 4887.76 5413.31 4669.06 3012.99 6400.08 4743.59 5208.14 4396.25 3763.05 5092.24 5369.08 3101.75 4518.04 4766.06 4874.18 2081.58 6505.78 4785.25 5461.55 4270.15 6865.76 5424.46 5266.01 4908.49 2978.76 2040.66 7016.27 5884.9 5089.62 4590.55 3685.65 3876.21 5869.4 4916.22 3701.16 6022.7 4255.85 5097.69 5857.79 3988.3 4039.91 6136.49 6543.13 5149.72 5036.58 5469.47 5329.59 6119.63 5464.25 5411.02 4244.21 4752.9 5512.16 3197.63 5301.47 4287.16 4863.96 4617.55 3645.12 5199.44 6200.54 5424.88 5148.58 4199.45 6599.66 4055.54 6419.12 4233.8 4976.12 4817.16 5453.98 3991.42 5148.08 3718.69 4514.79 3672.21 2216.82 5760.22 4509.89 5938.17 4795.43 5269.38 5607.3 2928.82 4914.45 4222.4 4698.87 4000.43 4661.03 4568.41 3624.7 5262.35 4691.91 4539.07 4255.34 4475.83 5064.79 5480.3 7509.24 4394.56 5896.26 5388.78 6101.13 4573.72 5099.21 4917.99 5636.4 4367.78 4350.12 5227.02 5670.0 4232.16 5300.96 4344.51 5680.94 3781.77 5581.55 5193.01 3474.5 6550.44 3860.83 6348.03 5732.27 4523.39 5278.56 5146.37 6917.62 5631.14 4013.38 4343.78 5263.3 4909.65 4008.15 6523.86 7693.4 4811.32 4286.49 4326.48 6184.88 5829.32 6405.0 5551.95 3918.87 5549.49 4633.05 5423.42 6605.86 5012.5 5435.19 3562.79 7093.13 3298.2 4953.1 6449.64 4857.84 6464.8 4962.21 4684.44 4749.59 4858.44 3468.42 5799.69 4673.35 5689.26 4992.42 5297.19 4940.84 4732.09 5895.77 5750.07 4833.46 5933.7 4809.67 4356.25 4757.74 5776.96 4216.95 4209.49 5742.74 3946.28 3821.94 5984.81 5439.9 3498.16 5486.48 5367.73 4409.27 4947.24 3875.05 3456.47 3540.11 5471.74 4344.34 4652.01 3548.39 5421.64 3673.28 7234.66 4858.51 4207.54 3375.28 4886.12 5625.65 4301.61 6107.89 4446.84 5530.49 5660.55 4304.41 5653.03 6192.0 4940.28 5885.28 6752.75 3004.34 5323.55 3022.6 5375.1 4811.76 5313.12 5351.56 3984.88 5160.59 4732.09 4320.42 7165.9 5344.83 7046.11 3427.63 4146.81 6342.48 5756.75 4587.67 5599.7 4163.74 6969.28 3665.95 5698.96 4095.75 3603.51 4298.45 5222.51 6609.84 5135.96 3834.43 5658.37 4707.06 6074.94 5491.37 4250.88 3783.54 3475.67 4792.39 7038.89 3863.67 4814.12 5067.56 6137.8 3352.35 2735.53 3747.03 5116.6 2783.85 4356.49 3994.07 4437.07 4219.94 3449.37 5491.9 5907.46 4264.91 4659.16 5789.55 5399.29 2275.45 4909.31 4901.2 5711.62 4383.56 4990.79 5166.79 4516.53 2895.63 5818.95 4093.99 3940.49 3604.14 4452.54 4406.05 4680.94 5828.35 5571.72 5876.72 3809.69 5236.43 4771.13 3208.96 5285.07 7051.9 4608.41 4184.23 4144.57 4351.38 5550.75 6834.41 7248.4 6045.67 5466.33 5280.12 4444.97 5721.05 4209.31 4247.69 4640.06 4514.39 4588.99 6242.79 4321.21 5950.45 5713.03 5849.65 3583.49 4928.27 5052.84 4366.74 5297.16 4936.96 4481.76 3184.64 5206.33 5452.78 5065.26 4892.44 5578.94 7610.49 4286.17 6579.31 6028.09 5452.36 3804.5 4172.6 5498.42 3344.57 4196.37 5318.53 5220.76 4281.98 5138.2 5783.48 4449.98 4863.97 4771.65 4840.44 5093.82 5951.81 3924.14 6918.35 4296.69 6238.32 3319.67 6804.79 6471.42 5283.8 5369.5 4076.59 4428.14 5164.1 6464.15 4479.11 4972.17 6685.4 5699.53 4222.77 6332.01 5268.38 5527.23 4805.33 7085.01 5980.95 6193.08 6069.3 5887.01 5168.35 5388.39 3728.18 5335.47 4526.81 5633.61 5048.19 4888.27 6740.71 6487.56 4854.11 5971.22 5533.19 6522.59 6602.43 4798.17 3568.28 5425.98 6479.39 4122.92 4405.42 4997.91 5079.22 4599.81 5381.54 5810.77 5089.1 4714.83 2711.19 4028.32 7519.2 4099.92 4884.59 6355.68 3858.06 4478.6 4680.14 4511.7 4083.79 4187.94 4304.63 5980.59 5263.27 6300.92 5021.77 3796.15 6226.14 4173.54 4801.8 7216.98 3000.29 5046.12 5271.02 7013.17 5718.28 3805.67 4601.74 6101.86 6506.86 5088.57 5993.0 5580.34 3852.6 5134.67 5775.31 4165.21 4215.0 3332.49 4603.5 4647.67 4214.44 5375.12 4787.97 4356.36 4981.43 3746.36 6789.23 3989.7 4777.03 4246.61 3684.56 6813.72 5327.75 4609.02 6486.37 4638.18 5211.6 6448.66 4453.97 6945.98 4701.5 6412.67 7001.83 4504.35 5012.97 5589.37 5439.49 6639.64 5212.43 4834.3 5454.12 6348.54 4066.57 5642.35 6372.13 5404.01 6016.19 4124.49 3230.13 5714.25 6176.67 5325.96 4850.06 5016.02 7044.29 4234.18 4920.21 4049.16 3936.95 6153.94 6836.82 3862.77 3858.17 4631.99 4740.98 3185.39 5934.82 5128.77 7122.87 4243.26 6799.23 5119.86 4592.15 5084.17 4901.44 3776.8 4998.22 5417.21 6104.26 5583.61 6063.64 5996.66 7382.3 2995.67 4022.56 3598.08 5522.21 5698.23 7300.58 3608.06 5474.15 4923.57 6633.61 5217.95 4867.7 5484.36 3953.55 4063.9 4469.54 4314.56 5161.1 3928.53 4619.2 5606.51 5599.29 5166.41 5740.65 6038.68 5067.56 3834.47 4807.4 6329.53 4590.01 6541.45 4750.49 4227.41 5078.31 5391.48 4803.57 4923.43 5966.42 4110.59 4847.14 4706.5 3950.27 5354.66 5116.66 3566.79 5378.23 5374.67 6246.56 4741.28 4061.6 4215.2 2603.64 5069.89 5107.0 4157.29 6212.15 4783.07 4896.65 4946.23 4852.58 6083.28 6100.73 5806.31 3556.79 5456.71 3503.41 7317.04 4908.75 3971.08 6204.65 4482.9 4593.7 4036.91 5110.11 6379.14 3687.65 5216.26 4887.52 5478.95 3851.85 6318.23 4206.98 5156.76 6357.47 6101.57 4891.38 5535.91 2949.12 5955.86 4532.89 4533.37 4848.46 5412.24 2779.99 5887.38 4581.37 6942.34 5851.61 5478.11 5526.31 5030.15 3644.78 3477.1 4078.93 4501.78 4922.49 3572.94 5797.36 5001.58 4153.84 4820.17 4729.42 5089.26 3886.72 5415.45 6592.93 5096.43 6156.21 6436.74 2460.79 4653.83 6171.71 4986.71 3628.89 6589.82 4668.88 5027.43 3772.3 4855.01 5522.75 5867.64 6208.9 3340.09 6059.93 5602.53 6061.63 2279.05 4829.35 4075.28 4277.24 4989.2 8137.11 5291.05 6650.77 4067.96 4824.12 7104.73 2596.96 6162.3 6349.67 4350.15 4264.54 4139.3 3516.27 5261.19 4263.78 4643.9 5228.75 6047.14 