# vtk DataFile Version 2.0
Time step 77
ASCII
DATASET UNSTRUCTURED_GRID
POINTS 5000 float
219713.0 182776.0 0
227671.0 182975.0 0
233114.0 181267.0 0
231762.0 184371.0 0
236721.0 183921.0 0
273398.0 182974.0 0
279427.0 181546.0 0
196451.0 188094.0 0
202313.0 186693.0 0
206150.0 189963.0 0
209165.0 185263.0 0
214808.0 186662.0 0
220229.0 188280.0 0
224665.0 186299.0 0
228623.0 187670.0 0
233502.0 188556.0 0
238771.0 188929.0 0
242478.0 184951.0 0
248933.0 186521.0 0
255238.0 185731.0 0
259767.0 187335.0 0
263851.0 185725.0 0
265311.0 189764.0 0
268879.0 186359.0 0
273930.0 187457.0 0
278470.0 187651.0 0
283756.0 185997.0 0
285759.0 189725.0 0
289486.0 185169.0 0
292672.0 189039.0 0
297343.0 187598.0 0
302771.0 187983.0 0
194398.0 193212.0 0
199576.0 191517.0 0
202542.0 190612.0 0
203437.0 194424.0 0
211184.0 190949.0 0
216093.0 191551.0 0
220668.0 194136.0 0
225079.0 190807.0 0
229595.0 192428.0 0
234109.0 193656.0 0
243906.0 190598.0 0
239548.0 194276.0 0
248708.0 192850.0 0
252467.0 190658.0 0
253339.0 194719.0 0
256535.0 190487.0 0
261353.0 191454.0 0
267729.0 194140.0 0
271625.0 190739.0 0
272543.0 194765.0 0
276244.0 192492.0 0
280346.0 194550.0 0
282286.0 190821.0 0
289004.0 190267.0 0
285963.0 193705.0 0
291953.0 193387.0 0
297177.0 193480.0 0
302782.0 193354.0 0
193614.0 198687.0 0
198465.0 196028.0 0
208710.0 195733.0 0
213944.0 195708.0 0
217817.0 199332.0 0
222451.0 198021.0 0
226106.0 196017.0 0
230889.0 196887.0 0
235840.0 197911.0 0
244790.0 196250.0 0
249717.0 197971.0 0
254517.0 199790.0 0
258175.0 195025.0 0
260177.0 199562.0 0
262849.0 195609.0 0
270777.0 197969.0 0
273558.0 199709.0 0
276926.0 197738.0 0
283340.0 198643.0 0
289296.0 198007.0 0
294135.0 197053.0 0
298240.0 198783.0 0
303047.0 198372.0 0
308559.0 197842.0 0
191155.0 202968.0 0
198727.0 201221.0 0
204708.0 200398.0 0
211697.0 201069.0 0
216742.0 204879.0 0
222882.0 202248.0 0
228203.0 200771.0 0
232589.0 200257.0 0
231656.0 204757.0 0
235992.0 202094.0 0
240581.0 199903.0 0
243971.0 204569.0 0
240966.0 204335.0 0
245898.0 201303.0 0
250679.0 202865.0 0
257453.0 202859.0 0
261908.0 204748.0 0
266004.0 200042.0 0
271039.0 201744.0 0
275065.0 203031.0 0
279357.0 201983.0 0
284095.0 205209.0 0
289335.0 202965.0 0
293442.0 200903.0 0
293162.0 205422.0 0
296843.0 203139.0 0
300462.0 203314.0 0
305802.0 204440.0 0
189354.0 210586.0 0
195102.0 205526.0 0
193408.0 210032.0 0
200764.0 206467.0 0
206455.0 206157.0 0
211782.0 206982.0 0
215754.0 209906.0 0
221386.0 207822.0 0
226873.0 205065.0 0
226192.0 208972.0 0
229924.0 208848.0 0
237045.0 207190.0 0
242801.0 208415.0 0
246954.0 205677.0 0
247227.0 209447.0 0
254546.0 205668.0 0
250494.0 207420.0 0
258283.0 208459.0 0
268275.0 206441.0 0
274142.0 207626.0 0
278725.0 207163.0 0
281200.0 209977.0 0
284022.0 210390.0 0
289142.0 206897.0 0
286842.0 209435.0 0
295082.0 209362.0 0
298784.0 207040.0 0
302510.0 208990.0 0
306046.0 210009.0 0
310163.0 208950.0 0
188049.0 215012.0 0
192778.0 214497.0 0
198053.0 212442.0 0
204201.0 211424.0 0
210562.0 212749.0 0
219231.0 211867.0 0
223586.0 213008.0 0
228651.0 212564.0 0
233353.0 211546.0 0
239061.0 213051.0 0
244830.0 213197.0 0
249554.0 212520.0 0
253769.0 210557.0 0
258381.0 213719.0 0
263228.0 210425.0 0
268076.0 211997.0 0
271508.0 210513.0 0
272273.0 214958.0 0
276969.0 211717.0 0
286451.0 212886.0 0
281830.0 214094.0 0
290774.0 210949.0 0
294633.0 214254.0 0
298650.0 211815.0 0
303451.0 213845.0 0
308416.0 213224.0 0
190184.0 218970.0 0
196422.0 218459.0 0
201222.0 216639.0 0
205798.0 216687.0 0
210917.0 219008.0 0
216207.0 215058.0 0
220861.0 217303.0 0
227350.0 218106.0 0
233446.0 216695.0 0
238450.0 218144.0 0
243230.0 217775.0 0
248061.0 216815.0 0
246194.0 220111.0 0
253091.0 215722.0 0
257088.0 219449.0 0
265126.0 215697.0 0
261026.0 217379.0 0
267835.0 219229.0 0
277427.0 216458.0 0
281249.0 219220.0 0
285446.0 217589.0 0
289995.0 215951.0 0
288830.0 220127.0 0
294199.0 219642.0 0
298896.0 216776.0 0
303850.0 219223.0 0
307960.0 217346.0 0
311568.0 217583.0 0
311015.0 220677.0 0
189338.0 222685.0 0
192848.0 221809.0 0
196912.0 223864.0 0
201249.0 221560.0 0
206001.0 220985.0 0
208589.0 223087.0 0
212748.0 224194.0 0
216692.0 220299.0 0
222454.0 222012.0 0
227095.0 223758.0 0
231095.0 221993.0 0
235138.0 221084.0 0
241217.0 222484.0 0
246346.0 223693.0 0
251446.0 221296.0 0
262372.0 221486.0 0
267794.0 224035.0 0
272187.0 220436.0 0
274807.0 224617.0 0
277082.0 220748.0 0
280074.0 224783.0 0
285040.0 222579.0 0
290880.0 224375.0 0
295711.0 224980.0 0
299440.0 222152.0 0
304673.0 225271.0 0
307624.0 221997.0 0
309748.0 225779.0 0
191123.0 226312.0 0
190950.0 230372.0 0
195504.0 228910.0 0
200119.0 226657.0 0
199735.0 230844.0 0
205041.0 225521.0 0
204005.0 230363.0 0
209068.0 225767.0 0
208375.0 228841.0 0
218170.0 225553.0 0
213548.0 229403.0 0
223634.0 227212.0 0
227691.0 229220.0 0
230797.0 226279.0 0
236285.0 225934.0 0
241444.0 227566.0 0
245833.0 227873.0 0
250450.0 226699.0 0
253175.0 230269.0 0
256996.0 225878.0 0
263158.0 226310.0 0
261583.0 229938.0 0
266696.0 229742.0 0
271365.0 227648.0 0
276530.0 229407.0 0
286645.0 227773.0 0
293706.0 229349.0 0
299922.0 228340.0 0
312987.0 230628.0 0
192062.0 234454.0 0
196580.0 233527.0 0
200371.0 234688.0 0
205163.0 235129.0 0
209568.0 232667.0 0
214869.0 234184.0 0
219421.0 230971.0 0
224559.0 231775.0 0
233133.0 230285.0 0
229172.0 233319.0 0
238104.0 230932.0 0
243495.0 232372.0 0
239510.0 234686.0 0
248733.0 231240.0 0
252090.0 234786.0 0
257607.0 232913.0 0
263397.0 233647.0 0
267729.0 234313.0 0
271809.0 232173.0 0
276359.0 234875.0 0
281820.0 229807.0 0
285778.0 232052.0 0
289439.0 231481.0 0
292513.0 233961.0 0
297277.0 233764.0 0
301897.0 233493.0 0
306687.0 230806.0 0
193817.0 239513.0 0
201453.0 239193.0 0
206833.0 240255.0 0
210593.0 236888.0 0
214362.0 237796.0 0
217296.0 239507.0 0
219637.0 235907.0 0
221776.0 240158.0 0
225009.0 236452.0 0
230138.0 238489.0 0
234687.0 235271.0 0
238556.0 237641.0 0
242390.0 237181.0 0
247427.0 235502.0 0
246048.0 238626.0 0
250090.0 239161.0 0
255731.0 239092.0 0
260774.0 237082.0 0
265644.0 238673.0 0
269971.0 240107.0 0
271481.0 236907.0 0
275053.0 239803.0 0
279215.0 238741.0 0
282124.0 235110.0 0
288024.0 236350.0 0
294471.0 238629.0 0
305066.0 236316.0 0
308080.0 240073.0 0
197804.0 242714.0 0
203505.0 244543.0 0
212791.0 242200.0 0
208131.0 244948.0 0
218662.0 243446.0 0
223110.0 244126.0 0
226326.0 241543.0 0
230774.0 243710.0 0
235173.0 240775.0 0
234701.0 245263.0 0
238203.0 244765.0 0
239764.0 240830.0 0
243412.0 240674.0 0
242094.0 244503.0 0
246876.0 243015.0 0
252157.0 244167.0 0
257469.0 244468.0 0
260925.0 241244.0 0
264331.0 243138.0 0
268086.0 243206.0 0
272243.0 243248.0 0
279677.0 241854.0 0
276741.0 244066.0 0
281336.0 245128.0 0
283685.0 240411.0 0
285198.0 243862.0 0
289419.0 242035.0 0
295281.0 243842.0 0
301008.0 240543.0 0
199186.0 247215.0 0
208554.0 248375.0 0
211664.0 247348.0 0
216075.0 246907.0 0
221192.0 248025.0 0
226970.0 246899.0 0
232414.0 249156.0 0
236646.0 248350.0 0
244600.0 247623.0 0
240290.0 248776.0 0
248490.0 247390.0 0
255087.0 248056.0 0
251503.0 250306.0 0
258415.0 248922.0 0
261574.0 245964.0 0
261967.0 249984.0 0
269935.0 246492.0 0
266115.0 247199.0 0
273509.0 247255.0 0
274641.0 250448.0 0
277651.0 248174.0 0
281340.0 249815.0 0
285307.0 247639.0 0
289431.0 246722.0 0
293309.0 248168.0 0
299891.0 246779.0 0
201503.0 250660.0 0
201976.0 253824.0 0
205019.0 249963.0 0
204859.0 254424.0 0
207479.0 254078.0 0
210039.0 251884.0 0
214359.0 254571.0 0
217913.0 251356.0 0
213988.0 250675.0 0
218448.0 255668.0 0
221689.0 253178.0 0
224788.0 250913.0 0
228953.0 252074.0 0
225479.0 255060.0 0
233091.0 254087.0 0
236931.0 252468.0 0
243294.0 251260.0 0
240750.0 252745.0 0
244277.0 254909.0 0
246873.0 251165.0 0
248875.0 254458.0 0
253013.0 254485.0 0
255669.0 251730.0 0
259028.0 252662.0 0
256495.0 255562.0 0
262486.0 254296.0 0
265604.0 251382.0 0
270148.0 250918.0 0
266650.0 255221.0 0
273735.0 253785.0 0
277752.0 252875.0 0
281761.0 254035.0 0
284618.0 251589.0 0
288817.0 251348.0 0
285988.0 255097.0 0
292604.0 253431.0 0
296714.0 251557.0 0
202713.0 258125.0 0
206834.0 257574.0 0
210779.0 256929.0 0
212564.0 260452.0 0
215366.0 258699.0 0
222414.0 257554.0 0
219225.0 259698.0 0
226474.0 259603.0 0
229591.0 256546.0 0
232781.0 258225.0 0
236133.0 257219.0 0
240053.0 256212.0 0
242927.0 259275.0 0
247063.0 258431.0 0
251123.0 257783.0 0
254473.0 257784.0 0
253194.0 260572.0 0
259525.0 256665.0 0
257642.0 260767.0 0
263120.0 259075.0 0
270475.0 256277.0 0
267418.0 259186.0 0
274390.0 257785.0 0
278429.0 257438.0 0
282902.0 258218.0 0
289846.0 256990.0 0
286806.0 259723.0 0
293297.0 256676.0 0
293613.0 260054.0 0
296915.0 256847.0 0
202127.0 262691.0 0
205347.0 261264.0 0
208864.0 261448.0 0
205612.0 264585.0 0
211822.0 263377.0 0
209072.0 265592.0 0
216156.0 263358.0 0
223094.0 262022.0 0
219978.0 262660.0 0
223817.0 265803.0 0
220427.0 265859.0 0
227454.0 264253.0 0
230403.0 260911.0 0
234291.0 261714.0 0
231084.0 263915.0 0
233275.0 265528.0 0
238743.0 261076.0 0
236619.0 265347.0 0
242393.0 262890.0 0
240335.0 265533.0 0
243939.0 265923.0 0
249908.0 261347.0 0
245950.0 262660.0 0
249284.0 264853.0 0
253661.0 264751.0 0
261753.0 263701.0 0
264891.0 265945.0 0
266255.0 262534.0 0
268653.0 265858.0 0
270812.0 261233.0 0
273320.0 265187.0 0
275706.0 261534.0 0
280014.0 262293.0 0
277297.0 265735.0 0
284306.0 261906.0 0
283592.0 265500.0 0
290050.0 261730.0 0
287062.0 263871.0 0
289956.0 265957.0 0
293676.0 264514.0 0
297679.0 261493.0 0
297750.0 265208.0 0
202280.0 266541.0 0
203093.0 270944.0 0
206332.0 267995.0 0
213055.0 266763.0 0
210004.0 268949.0 0
213240.0 270007.0 0
217372.0 268768.0 0
221951.0 269462.0 0
225860.0 269013.0 0
230303.0 268315.0 0
234478.0 269278.0 0
238205.0 269230.0 0
242076.0 269295.0 0
246766.0 266471.0 0
245859.0 269471.0 0
250182.0 269315.0 0
254777.0 269683.0 0
258000.0 266340.0 0
258495.0 270864.0 0
261571.0 268565.0 0
265366.0 269511.0 0
268473.0 269945.0 0
[...]
POINT_DATA 5000
SCALARS Radius float 1
LOOKUP_TABLE default
5258.36 5061.3 3163.97 3642.12 5812.43 5580.89 6810.52 5415.48 5120.0 4998.37 6182.6 5492.18 5867.73 3951.75 4499.64 5542.27 5122.66 5906.14 7513.1 5254.28 4402.52 4436.4 4182.53 5733.48 3588.44 5645.7 5553.16 2938.66 6110.27 4008.92 5840.26 5073.35 4834.9 3863.18 2356.98 5484.83 5351.6 4715.55 6059.59 5013.56 4375.68 5054.98 5484.19 6030.06 5170.02 3557.27 4927.31 4688.68 4517.56 5903.42 4672.91 3761.32 5176.86 4118.05 4366.19 3672.51 5065.13 4940.78 5561.06 5670.04 6044.04 5085.53 5538.89 4730.36 5926.61 2720.68 5701.86 4238.81 4468.59 5325.02 5200.76 4862.64 5185.34 5205.43 4432.58 3955.56 2635.86 5292.64 6166.5 5936.02 3615.22 5305.17 4380.59 6716.79 3850.77 5325.36 6759.9 7021.47 5416.38 6051.14 4955.55 3563.63 5836.15 4345.55 5885.03 2837.58 3653.41 5246.2 5017.13 3673.74 6116.18 6684.56 3968.64 4688.67 4385.06 7184.19 4290.3 4231.61 4861.08 3942.53 3379.84 7613.27 4133.88 5546.39 4094.62 5945.65 5418.62 5493.32 4601.27 5740.68 4195.44 4277.89 3261.21 6704.06 5600.93 3871.88 3856.01 4827.23 4390.66 4911.47 7447.37 4924.6 4733.32 2812.98 2899.43 3867.67 2924.37 4003.05 4827.82 3607.45 3589.27 4951.03 4665.12 4927.02 6483.19 6230.49 7054.71 3641.64 5747.75 4796.33 5539.32 6496.85 5541.59 4124.71 5279.39 6337.56 5803.39 4381.97 3255.82 6257.19 5242.73 4065.69 5603.15 5399.73 4712.33 4805.87 5759.91 4333.2 3936.02 5980.74 4174.52 5109.54 6458.82 5489.43 5054.25 7325.81 5360.19 4874.39 4839.34 5083.08 2980.99 5728.85 5525.39 5863.59 3998.5 4024.3 4737.14 4695.45 4660.72 5390.22 3888.21 6038.78 5227.21 5123.52 3997.1 3260.67 3038.33 3383.4 3856.1 4044.71 5816.2 3829.13 3091.3 5789.98 5527.54 5573.7 4727.62 4055.8 4794.96 6186.19 4840.01 6834.49 5938.34 6394.38 5555.28 5169.36 4686.65 5834.74 5556.96 6052.7 3921.18 5697.78 4667.36 4295.38 4392.68 4780.03 3554.9 5495.39 4487.31 4002.16 5693.81 4778.34 2540.31 4138.16 6138.47 6029.66 5697.4 4005.44 5206.78 6425.26 5143.58 4484.76 5611.2 4220.65 7933.0 5173.87 4455.12 5380.13 5118.27 5932.23 5788.23 5891.05 6902.81 5529.52 5252.48 3996.0 4015.92 5708.81 4684.5 5120.49 6302.8 4270.95 5280.17 5555.88 5028.96 6362.12 3866.16 5152.36 5826.64 6820.42 4894.16 4896.52 5711.87 5791.61 5581.75 3666.57 3798.62 4254.17 5615.42 4091.31 7199.21 6124.89 5542.21 5924.89 5043.05 3486.22 4414.54 5409.61 5262.61 6038.2 5713.22 6732.43 3183.98 4524.28 4511.82 3778.1 4727.24 6959.81 4816.2 6321.41 3372.79 4941.22 5282.64 4479.66 6392.01 6644.76 6372.62 4523.7 5255.32 5337.48 5481.78 6894.71 4937.14 5201.36 4306.53 5094.81 5972.06 5861.71 4312.67 4359.04 5017.78 3794.63 5015.69 6175.81 6677.09 5813.4 4829.35 4089.76 4751.02 5184.56 3369.13 4715.72 5367.2 5308.1 3043.85 6730.19 4937.02 7565.34 5637.59 3307.12 4467.94 5551.36 6038.14 6135.57 5998.38 4270.24 4947.52 4989.15 4520.1 4305.57 5874.89 3791.79 5201.67 4754.05 3192.41 5526.55 4987.87 3315.57 4669.66 4808.52 5461.13 4907.89 5629.19 6037.08 3103.0 4049.23 6084.86 3586.91 3115.91 5478.92 5094.44 4850.81 4933.21 5375.47 4723.12 5024.9 5659.17 4717.05 4562.29 5423.8 4164.13 3417.33 4926.42 4642.34 5153.74 4165.81 4293.03 4424.7 4389.21 4925.44 4951.47 6084.93 5246.61 4764.96 5607.24 4726.76 3599.45 5655.21 5090.24 5091.39 6756.95 5601.05 4948.92 5810.84 3748.24 4655.49 4809.42 4566.18 5856.11 5287.2 4234.94 5013.13 5080.66 5110.45 5248.77 4528.09 3556.85 3895.51 4128.98 6291.51 6246.22 5215.15 4307.28 5046.33 5053.92 5839.13 5923.5 4073.93 2240.39 5096.78 6324.23 4382.74 4516.43 4749.8 4384.42 4230.54 4493.48 6163.38 4964.09 3459.9 4093.08 4997.27 5543.27 4109.88 4980.85 3327.49 3960.8 5714.58 4923.9 3329.99 4973.78 3947.47 4083.97 5208.32 4607.02 6673.96 5882.89 4188.32 4100.38 5538.93 5804.71 5727.3 5020.12 6352.26 4242.52 3735.44 4907.06 4645.41 4786.6 4433.59 5740.84 4727.24 4612.68 4651.28 6355.42 4362.19 5082.6 3693.63 3937.74 6061.47 4449.22 5628.24 5992.26 5070.39 4613.31 5091.68 3296.27 4713.25 6243.0 5441.96 5174.89 4288.3 5370.52 4739.42 3697.96 4899.11 3847.38 4745.45 5356.51 3057.03 5163.9 4973.83 5530.87 3320.52 4929.8 4151.94 5690.56 5244.78 5478.47 6142.37 5806.08 4853.39 5365.89 3130.65 4511.54 5196.0 4204.84 6119.09 5069.25 5048.89 3991.03 3435.9 4652.29 5774.81 4723.48 5344.77 4278.07 5281.28 3818.59 4863.72 2631.9 5495.68 6043.3 3912.37 6445.94 4281.49 4310.18 4129.43 5927.43 5492.26 5762.84 5119.37 3982.23 5351.39 5243.29 4336.42 3402.32 7589.94 5004.67 5409.33 4466.03 4178.15 4898.94 4733.04 7531.29 5935.03 4755.47 3161.47 6390.78 6826.57 4495.87 5027.98 3746.31 5097.87 5346.27 7267.18 4087.15 4143.08 5489.34 5002.48 5952.75 4262.82 5537.72 4320.28 6342.25 4685.34 6327.9 4220.88 6519.71 6640.13 3092.35 5210.03 4583.31 4306.11 5903.66 5419.37 5985.29 4247.23 5788.66 3903.75 4485.99 7435.25 4788.87 5498.32 5543.46 6475.1 6255.18 4758.21 7500.97 5708.14 3920.42 6332.36 5542.14 4218.06 3843.58 6082.81 5449.18 3629.96 4714.54 3320.11 5507.24 6022.17 4503.89 5313.66 4528.49 5275.32 4268.65 4649.22 4694.83 4354.08 5509.42 4520.62 5475.7 5475.8 5314.69 6050.81 6022.72 5527.33 4969.21 2691.29 6256.02 4277.88 6623.85 8332.24 4931.53 6691.39 5293.9 3191.99 5110.37 5367.52 4048.37 5030.91 4322.15 4659.59 5101.59 6851.54 3813.22 5570.3 5935.47 2651.49 5512.23 4711.62 5349.31 5394.55 4256.43 5936.36 5229.48 5415.19 5127.16 4249.46 4244.99 4643.31 5965.81 6917.52 5402.21 4668.71 7228.46 5102.36 5787.31 7134.64 4602.25 5480.13 6142.94 4931.38 5664.98 3485.26 3240.09 5025.39 4548.16 4377.07 3695.36 3848.93 6020.48 5234.29 5200.05 4114.24 4645.58 5670.2 2976.22 5094.52 2682.24 5928.32 4016.18 5526.75 5435.74 4275.57 5560.26 5327.45 6185.89 2330.66 3702.37 4177.19 3691.0 3990.25 4752.51 2845.98 4880.14 5320.92 3948.23 5228.18 4342.9 5978.82 6122.55 5978.9 4270.53 4329.05 4736.58 4792.73 4556.36 3369.23 5264.06 3688.8 4515.71 5893.5 4547.19 3817.13 3963.86 5076.35 3844.9 5273.35 4091.8 5181.4 5166.79 4662.56 5417.15 4946.74 5996.33 3950.63 4612.62 3619.07 6385.23 2983.99 3997.96 5660.85 4750.17 3758.07 3587.05 4373.45 4989.09 4982.31 6362.14 5269.18 4406.1 6719.88 6155.31 6308.71 2739.94 4790.08 4194.5 5082.47 5513.6 4901.41 5358.59 6202.55 6387.01 5023.15 6375.99 4871.44 4853.02 6259.23 3931.07 3457.48 3405.98 3688.16 4681.72 6631.19 5661.62 4467.04 5817.25 2614.4 4439.35 3460.94 6184.4 6205.93 3828.81 6229.37 5289.52 5034.59 5314.85 5065.11 4553.56 5911.67 4223.33 4187.56 3629.62 4840.84 4997.27 5138.31 3708.04 4551.24 3610.4 4621.75 6338.89 7111.16 6480.17 4564.34 3838.56 6248.81 5088.44 4998.21 6079.11 4256.67 7440.72 3949.6 4945.39 5376.71 4867.08 5626.61 5407.78 6648.68 6363.92 6632.99 4923.24 5830.72 5309.98 4307.48 6718.19 4305.43 5450.44 4942.77 3927.99 5069.84 5868.82 5329.64 3323.28 4051.44 4301.06 5344.25 4501.51 6013.14 4602.86 4581.13 3856.59 2765.2 4219.07 5372.61 5413.79 5584.06 3686.21 6445.22 5872.05 4962.77 5323.3 4427.28 3082.32 6430.39 4765.02 3658.37 4448.13 5703.6 6326.18 4713.74 5061.98 4537.6 6179.96 4419.61 7177.44 6260.79 4407.87 4082.57 4236.14 3848.54 5080.18 5941.4 5266.5 4454.63 4716.19 4050.9 5135.69 5514.76 5344.0 3456.98 5191.63 5379.87 5925.6 5572.95 6723.16 4746.52 5402.24 4948.5 5013.42 5651.07 5210.48 6101.92 4635.6 6239.84 5370.85 5070.29 5629.39 4807.28 4768.61 4266.03 4084.49 5075.55 4220.03 5703.07 5147.36 4662.43 4563.46 3963.76 5169.9 5282.91 6510.17 4871.96 4263.33 4066.38 6695.82 6049.55 5709.62 6405.76 4290.14 4593.7 5987.17 4043.57 3979.82 5586.81 5006.58 5130.91 3868.18 4527.02 5383.07 7552.94 4519.22 3627.55 4409.63 5865.39 5521.25 3178.54 5949.46 6157.04 2684.03 5246.47 3776.94 2261.36 4522.21 5280.69 6923.84 5449.46 6113.54 4043.66 5733.62 6553.94 4425.84 5282.51 3797.33 5331.02 4523.88 5742.65 4241.89 5835.78 5054.74 4877.67 6045.46 4763.45 4138.42 4481.53 3824.16 5011.31 5330.45 3689.45 5077.33 3948.17 4531.14 4959.34 4247.15 4602.85 7644.38 4051.34 5278.36 3661.9 5136.08 5107.23 4010.57 4187.31 5506.19 6191.29 6719.94 6166.29 4950.67 5453.6 5294.77 4709.05 3077.84 5255.18 5528.53 3004.16 4460.92 7256.35 5945.89 5592.32 4800.69 3279.1 4099.77 4020.32 3498.2 5941.72 4245.72 3815.26 4150.99 4292.06 5681.38 6318.18 5045.38 5350.88 5125.78 4790.78 5452.83 6552.22 6422.84 5379.09 6004.68 5534.94 5180.76 6799.4 5222.16 5533.42 5558.68 3240.51 4599.38 5730.33 7422.36 4527.99 5161.01 4628.4 5409.63 5227.59 4630.82 4813.08 5726.66 5460.65 4767.78 3062.43 4105.55 4042.28 5912.61 4978.31 4402.67 4403.98 4981.9 4948.98 5794.24 4537.32 6562.18 4216.92 4478.15 5147.67 3771.48 5577.04 4986.77 6034.41 4591.87 5178.99 4027.09 5801.99 4502.18 3312.06 6218.95 5533.72 4993.35 3678.08 4802.32 5146.37 5518.57 5463.48 4543.1 5545.46 4376.7 5190.61 4298.15 6051.83 3973.12 4263.16 6024.75 5860.67 6799.88 4540.86 5426.78 5235.17 4863.23 3555.86 6566.1 5381.16 4560.84 5227.52 4414.48 6086.96 5163.02 4127.74 4541.21 4704.72 5908.1 5445.87 5198.77 5423.0 5643.58 5215.05 5197.52 5344.43 5615.35 4135.62 4860.33 5266.22 3361.26 4983.39 3685.13 3418.99 4690.55 5366.52 7132.12 5417.8 4836.16 5680.94 5581.55 5832.37 6550.44 3764.06 4642.93 5941.9 6642.76 5987.42 5990.52 6109.49 5652.0 4340.76 4435.36 6065.22 6386.78 5565.13 4996.99 6193.35 4656.78 4302.5 3066.13 2476.04 6048.7 4571.7 4850.01 4107.03 4138.46 2775.04 5137.34 5198.29 3975.31 4373.47 6070.58 5490.43 6169.11 4896.11 5172.53 4318.48 6132.95 5226.97 5754.18 4480.95 4558.15 6552.21 5227.02 4232.16 5151.11 5300.96 5193.01 8325.01 4440.81 4523.39 5829.22 5567.93 3764.1 2967.38 4835.83 5463.41 4421.12 4929.75 5254.49 6045.22 4221.28 4470.61 4456.39 4156.38 4631.83 4092.24 6009.88 4177.94 4344.58 4271.69 3970.25 4044.45 3821.72 6035.6 4285.32 3627.82 5262.19 5022.28 4285.66 5339.38 5008.63 4004.35 4763.96 4270.74 3450.93 6293.89 5132.68 5737.75 6595.03 4350.12 5670.0 3834.43 6609.84 4344.51 4707.06 5491.37 3781.77 3474.5 6348.03 3860.83 4792.39 5732.27 5434.47 4497.78 4243.79 5811.18 5332.65 4779.5 4159.35 4237.98 6649.96 3701.27 4729.43 5105.16 5991.09 6006.16 4164.68 5896.46 4742.68 4810.12 6898.19 6449.45 5526.14 4244.9 6048.86 4986.51 3872.61 5311.03 3930.79 5293.51 4238.4 5365.24 5097.45 4446.06 2761.07 5742.47 3778.02 3603.51 4367.78 4095.75 5135.96 5222.51 6074.94 5658.37 4250.88 3475.67 5278.56 7038.89 6917.62 5146.37 5433.65 6451.33 5225.33 5604.35 3091.67 6439.37 4614.3 4896.39 5233.78 4384.88 6887.27 4562.74 5126.91 6008.49 4806.34 4678.38 3942.07 5050.65 5634.83 5316.75 3633.87 3929.19 7099.43 4516.28 4470.4 5315.4 4611.53 6894.26 5255.12 6408.83 6625.18 4185.61 4047.87 5099.21 4573.72 4917.99 5636.4 3319.67 4076.59 4298.45 5164.1 4428.14 4972.17 5699.53 3783.54 4222.77 5268.38 3863.67 5527.23 5631.14 4814.12 5067.56 6137.8 4442.22 4343.78 4887.76 5413.31 6477.91 4332.87 4303.19 3633.79 4081.97 6081.14 5421.53 5480.83 5448.61 4827.33 5776.57 5495.84 6268.1 4502.5 5922.5 5499.11 5347.48 4374.35 6396.74 5776.37 5486.68 5100.25 5678.96 5296.29 2681.29 5094.48 5576.92 4586.19 4163.74 5323.91 6969.28 5698.96 6471.42 5283.8 6464.15 6016.19 6685.4 4850.06 4479.11 6332.01 4805.33 7044.29 5980.95 4013.38 7085.01 5263.3 3012.99 4909.65 4008.15 6316.56 5401.99 6420.81 5514.84 5134.39 3914.2 7144.24 5653.9 5133.97 7443.72 5022.8 3784.5 6133.92 3937.08 5782.6 6261.42 5113.21 4862.21 5965.78 4011.77 4527.08 5252.34 4410.55 2965.79 4287.63 3921.08 4190.31 5805.86 5346.68 4049.02 5997.88 4360.23 5889.35 6234.32 4585.31 5010.04 4570.98 4296.69 4275.07 5825.38 3665.95 6238.32 6372.13 6804.79 5369.5 4124.49 5535.91 5714.25 3230.13 6176.67 5325.96 5016.02 4581.37 4234.18 6193.08 3352.35 2735.53 5116.6 5887.01 4669.06 4811.32 6400.08 4286.49 4256.57 5580.92 4715.58 4607.85 4220.46 4287.53 3600.43 5683.26 5598.74 6600.94 5371.02 4906.82 5513.57 7055.53 3719.84 5013.67 4178.4 5669.65 5011.84 5253.55 5820.48 7034.11 2586.12 5433.8 6125.34 5975.63 4274.61 6314.07 5083.41 5683.61 7055.42 4558.46 3836.45 5731.57 5020.71 5662.55 5737.92 5839.71 3755.95 3056.7 5591.76 4394.56 5388.78 6101.13 5599.7 6918.35 5404.01 5642.35 6357.47 4793.65 5955.86 4533.37 4532.89 5412.24 2779.99 5887.38 4920.21 4049.16 5851.61 3936.95 6153.94 6069.3 3862.77 5168.35 6523.86 7693.4 6184.88 4743.59 3317.83 5208.14 5784.3 3532.3 5769.98 6088.68 5937.08 5131.24 6070.3 4788.58 6155.1 5046.21 5260.34 5729.23 5206.48 5934.22 4709.35 6586.45 3780.23 5826.04 3471.03 5690.26 4359.62 6057.22 5062.71 4156.2 6946.21 4289.17 4497.59 5564.02 6444.77 5759.46 6248.6 5443.58 5687.85 6401.43 5703.74 4747.55 5464.68 2685.81 4510.8 5896.26 4587.67 5093.82 5951.81 3924.14 4834.3 6348.54 4066.57 6101.57 4891.38 3856.53 2949.12 6040.74 4848.46 5742.09 6942.34 4393.16 3658.05 6836.82 5478.11 3858.17 3477.1 4631.99 3747.03 5388.39 2783.85 4356.49 4326.48 4437.07 5829.32 3449.37 4396.25 4450.7 5151.52 5973.33 3583.21 2221.99 4643.56 5442.32 5612.21 4135.08 5291.9 5894.61 5128.57 4929.14 5687.83 5196.67 5004.23 6496.67 5139.5 5876.71 5474.8 6442.69 5624.49 6320.71 5226.0 5339.78 4750.78 5029.78 3095.48 5188.81 3923.03 3745.84 4730.41 5696.88 4643.85 4203.26 4004.04 5607.14 5082.74 5411.85 6915.83 3999.94 4844.57 4027.46 6072.45 3901.8 5511.88 4470.98 5941.61 4512.11 4933.65 5708.99 6098.1 2435.33 4074.48 6333.29 4477.04 4558.47 5831.96 4539.07 5064.79 4475.83 5480.3 7509.24 4146.81 5756.75 5212.43 5454.12 6318.23 4058.87 4206.98 5156.76 5932.07 5948.71 5844.72 5460.89 4054.22 5260.85 2884.65 5393.65 5807.46 4648.21 3311.29 3110.13 5526.31 5030.15 3644.78 4078.93 4740.98 3185.39 3728.18 5335.47 5128.77 4526.81 3994.07 5491.9 3763.05 5092.24 5551.95 4659.16 3918.87 4347.74 5369.08 5067.46 4518.04 4863.01 4009.62 6000.7 5620.74 5945.08 5604.21 7493.3 3979.54 4968.03 5304.13 4814.55 4648.04 5833.06 4373.3 6262.72 3527.05 4166.08 3664.11 5762.59 3365.82 4861.06 3979.26 5960.66 6608.73 3999.48 5654.31 6062.05 4735.33 6939.12 4413.85 6853.85 5092.37 6171.13 4020.4 4864.22 5782.48 2395.5 3497.9 4031.78 3735.24 5564.23 5950.04 6574.95 4231.83 6853.04 6817.57 3614.96 3886.68 4745.43 4912.04 4691.91 4255.34 5344.83 7046.11 4863.97 3427.63 6342.48 4840.44 6639.64 5439.49 5216.26 3687.65 4887.52 5478.95 3851.85 6571.31 4392.65 5174.75 5048.55 4984.46 4024.31 4147.31 3992.97 5989.05 7228.94 4441.22 4961.99 4595.12 5853.89 4386.8 4549.69 6423.81 3485.54 6192.77 4312.15 5934.82 4501.78 5633.61 6405.0 4219.94 5048.19 5907.46 4264.91 5399.29 5549.49 5789.55 3101.75 4766.06 3580.58 5356.79 4874.18 5233.29 2081.58 4011.37 4778.82 3169.67 4312.56 4612.06 5204.04 3361.92 3306.14 5467.84 5944.09 5490.58 5698.77 6607.87 4863.79 4163.5 6515.84 6481.79 5374.51 4123.6 5320.28 7092.87 4796.58 4569.12 4298.67 5873.69 5750.71 4472.17 4962.09 6222.42 5470.77 4831.47 5516.95 5563.79 4151.76 3905.51 4406.4 4721.02 3546.71 3493.47 4596.75 4254.37 3374.08 4188.87 5768.57 4498.25 5151.21 5108.06 3573.73 5398.64 4693.52 4568.41 3624.7 5262.35 3420.08 4320.42 4281.98 7165.9 4701.5 4449.98 4771.65 4036.91 5589.37 5110.11 6379.14 3634.5 6631.28 6413.15 6103.11 6459.51 4955.16 4904.51 2202.77 5950.88 5751.15 4149.55 6201.86 6551.93 6484.43 3380.69 4140.4 4725.01 4625.67 4458.64 4583.52 3657.69 6418.11 7122.87 4243.26 3572.94 6799.23 4888.27 4153.84 6740.71 5423.42 6487.56 6605.86 4901.2 2511.46 2775.69 6505.78 5657.36 6124.08 5029.47 3619.79 4750.58 5876.64 5395.14 4702.06 6710.88 3967.48 3464.83 5117.47 2477.07 4923.41 4143.78 4538.95 5724.64 4970.88 5224.12 4850.14 4763.66 4666.81 6739.08 4471.58 3637.61 6098.14 5463.38 5945.21 3493.7 4938.74 4200.03 5313.22 3474.39 3436.15 5328.22 5711.11 4575.94 4216.17 5021.88 6484.17 4938.72 4597.29 5956.65 5931.77 4200.09 5097.95 4222.4 4914.45 4000.43 4698.87 3984.88 4661.03 3344.57 5318.53 5220.76 5160.59 4732.09 5783.48 5138.2 4504.35 7001.83 4593.7 5012.97 4349.13 4891.67 6818.91 3429.57 4027.63 3503.65 5569.2 5420.67 5350.88 5416.45 5305.59 6114.89 4330.58 5754.6 3288.01 4355.83 6870.97 6056.87 5474.01 5307.35 7554.58 4342.18 3639.44 5446.4 5966.75 5725.37 3868.62 5510.9 4883.63 3492.83 6015.02 4922.49 5797.36 5001.58 5119.86 4820.17 4729.42 4854.11 4592.15 5084.17 4633.05 4901.44 5971.22 2275.45 6522.59 4909.31 5012.5 6519.43 5711.62 4785.25 4270.15 5461.55 5053.95 3298.2 6306.21 5926.11 6667.68 6213.04 2990.77 3163.78 4497.31 3830.46 4925.63 5965.15 4888.6 4721.32 4305.16 3293.56 5882.65 7042.12 5078.86 4780.2 4797.52 6326.39 5501.93 6343.14 5462.21 5374.98 6049.79 6313.06 5226.56 6345.13 5274.19 6470.3 5599.49 4050.08 5452.42 4719.7 4097.57 5017.5 5005.85 4893.49 4834.87 5325.44 5102.75 3672.21 5760.22 5938.17 4795.43 2928.82 4811.76 5313.12 5498.42 5351.56 6448.66 4453.97 6945.98 7317.04 6412.67 6204.65 4482.9 3766.69 5513.8 5188.53 4521.75 6746.66 5410.33 4642.74 6735.97 3636.15 5483.7 5135.63 6384.7 3896.27 5952.38 5351.86 5963.36 5230.02 5169.48 6016.08 5166.89 5491.63 6064.71 6102.98 5138.33 3743.76 4505.28 3425.69 4971.29 6280.13 5244.22 5510.45 3684.15 5585.14 7039.98 5832.29 6456.58 4159.81 5089.26 3886.72 5415.45 4998.22 5533.19 5417.21 6602.43 5435.19 3562.79 4383.56 7093.13 4990.79 6865.76 5424.46 5253.37 5235.11 5266.01 5211.38 6515.8 6413.11 6031.67 5092.28 4739.14 5274.14 4918.77 4636.5 5163.55 4819.73 3382.7 4903.82 6817.32 6471.55 3954.91 5085.71 5923.4 4319.79 5960.56 6643.85 4020.95 5774.97 5862.86 4890.5 4390.41 6113.95 3731.84 4901.07 3981.07 3554.48 6496.52 5186.3 3991.42 3718.69 5966.61 4388.63 4940.28 4514.79 2216.82 4509.89 6752.75 5269.38 3004.34 3022.6 5607.3 5375.1 4638.18 4172.6 5211.6 4196.37 5806.31 4745.79 3556.79 3503.41 5456.71 4908.75 6556.26 3971.08 5684.25 5438.92 6550.4 4244.49 5036.98 4120.07 4775.04 4952.52 4882.66 3840.21 4081.34 3908.56 4954.76 6334.53 5244.78 4844.83 5377.37 5869.67 5652.87 4311.48 4899.73 3152.86 5018.69 6394.19 5973.89 5807.52 5087.14 5518.11 4192.21 5712.35 4731.21 4743.9 3124.7 3719.11 4467.13 6060.17 5153.18 6711.21 5902.67 4236.86 4730.14 4438.76 2606.51 3994.39 6006.89 5244.98 3814.65 3965.3 2955.36 4960.64 5792.98 3776.8 4983.3 5096.43 6592.93 6156.21 6350.71 6104.26 3568.28 4798.17 5425.98 5166.79 4953.1 2895.63 4516.53 6449.64 5818.95 5767.9 3940.49 4857.84 2040.66 5384.76 2978.76 5529.42 7016.27 5257.12 6138.12 4689.15 4434.19 5100.1 4428.78 4965.89 4940.42 5746.28 3703.1 4946.42 4371.99 4623.61 5409.66 5187.7 4082.47 3561.29 5203.08 2965.01 6235.57 6263.44 4863.27 3492.19 4584.5 5122.63 6766.43 4118.84 2315.64 5916.16 4703.08 3423.15 6934.37 4488.85 5010.2 4579.69 4997.83 6123.03 5578.94 5148.08 6192.0 4777.03 7610.49 5885.28 6579.31 5323.55 6028.09 4609.02 3804.5 5452.36 6486.37 5561.74 6083.28 6100.73 5470.04 4198.94 4211.82 5212.37 2628.22 6003.78 5058.51 4124.76 4901.29 7200.89 4050.03 4813.33 4833.55 3646.95 4705.68 7224.99 4749.96 4658.24 4906.11 4387.39 4564.1 5457.66 5509.51 4848.14 5366.22 6193.73 5254.24 5701.52 3742.11 3597.43 4914.03 6776.22 4158.91 5311.55 5321.17 3877.8 4869.25 6273.6 4763.4 5454.11 5024.32 4708.17 5393.76 4941.02 3779.45 5806.61 3864.92 4618.73 4983.1 3668.93 6119.99 4128.1 5372.82 4385.81 6436.74 4034.05 5690.96 5583.61 2460.79 4653.83 6063.64 5996.66 4093.99 6479.39 4122.92 5079.22 6464.8 4908.49 4452.54 3604.14 6622.11 4684.44 4962.21 5884.9 5089.62 3685.65 3468.42 3685.13 6790.73 4590.55 5243.43 5659.95 6090.91 4741.26 5920.32 4186.6 4537.14 4152.85 3701.16 3295.83 5551.9 4219.78 5644.82 5499.39 6413.02 4440.57 5412.31 6736.03 5374.07 5548.29 3087.09 3623.87 7480.41 5163.77 3766.55 5469.13 6027.62 5765.42 6098.95 4817.16 5453.98 5660.55 5653.03 4157.29 3989.7 5107.0 4246.61 4286.17 3684.56 5327.75 4946.23 4852.58 4896.65 4532.7 5975.23 4504.86 4473.29 4788.08 5079.64 996.652 4680.69 6163.54 6500.49 5965.58 4607.18 3352.34 2403.72 3899.7 5134.33 4147.49 5419.57 5162.67 4802.98 5760.98 5469.35 5384.86 4019.34 4869.48 5510.96 3623.19 6653.07 4745.16 4697.91 5825.55 5719.79 3199.4 4316.5 7261.51 5148.1 5224.64 4968.14 5949.73 5086.29 5144.56 5139.18 3360.86 3034.16 5551.43 5049.99 5545.21 4333.87 4201.03 5136.87 5638.7 2741.2 5790.42 5784.37 7123.04 6010.59 4009.24 3682.35 3756.96 4402.17 4446.58 5401.4 7778.01 5127.82 4456.11 5798.38 4125.9 5096.24 3862.91 5366.11 4986.71 6171.71 7382.3 4405.42 4997.91 2995.67 3598.08 4599.81 5381.54 4022.56 5522.21 4749.59 4406.05 5698.23 4858.44 4680.94 5828.35 5799.69 5089.1 4673.35 5876.72 3876.21 5571.72 4655.16 5689