# vtk DataFile Version 2.0
Time step 10
ASCII
DATASET UNSTRUCTURED_GRID
POINTS 5000 float
53104.8 469766.0 0
56690.7 466955.0 0
60199.2 464980.0 0
64492.6 462826.0 0
67337.0 467086.0 0
75237.0 465326.0 0
79475.7 467450.0 0
84132.4 466501.0 0
88310.7 466373.0 0
92500.0 467470.0 0
97178.0 467492.0 0
101277.0 467410.0 0
105923.0 466756.0 0
111949.0 467256.0 0
117860.0 467463.0 0
123338.0 467540.0 0
128352.0 467599.0 0
133442.0 466907.0 0
138137.0 467594.0 0
142500.0 467514.0 0
147500.0 467447.0 0
152501.0 467417.0 0
157584.0 467057.0 0
162558.0 467204.0 0
167020.0 466800.0 0
171832.0 465651.0 0
177741.0 465694.0 0
182947.0 464891.0 0
187409.0 466733.0 0
196107.0 467057.0 0
201758.0 466402.0 0
207655.0 467152.0 0
212996.0 466541.0 0
218133.0 467574.0 0
222484.0 467585.0 0
225820.0 466913.0 0
230429.0 466749.0 0
241171.0 466409.0 0
252667.0 466377.0 0
259031.0 466893.0 0
268743.0 466900.0 0
273939.0 467177.0 0
278877.0 465797.0 0
286329.0 467435.0 0
297322.0 465774.0 0
303650.0 466616.0 0
312116.0 466969.0 0
317917.0 467605.0 0
323233.0 467518.0 0
332194.0 467360.0 0
337209.0 467057.0 0
345850.0 466615.0 0
355194.0 467630.0 0
361707.0 466158.0 0
372001.0 464246.0 0
367844.0 467430.0 0
377048.0 466135.0 0
382620.0 467046.0 0
388143.0 466387.0 0
394022.0 465672.0 0
399172.0 467423.0 0
403623.0 464677.0 0
408749.0 464978.0 0
411963.0 467217.0 0
415687.0 466985.0 0
421000.0 464608.0 0
425660.0 465695.0 0
429189.0 461777.0 0
431361.0 465895.0 0
437856.0 463615.0 0
435252.0 466294.0 0
438334.0 468482.0 0
441438.0 466156.0 0
445340.0 469099.0 0
49017.7 472706.0 0
53579.7 474259.0 0
56926.3 470403.0 0
57457.2 474023.0 0
60234.2 470701.0 0
62607.6 467832.0 0
64474.7 471957.0 0
68874.4 471680.0 0
72034.9 468554.0 0
72198.2 472568.0 0
76185.8 471155.0 0
80074.2 472734.0 0
83425.2 471144.0 0
88640.7 471135.0 0
92973.7 472727.0 0
97021.5 471955.0 0
102452.0 472085.0 0
108228.0 471337.0 0
112500.0 472546.0 0
117500.0 472628.0 0
122500.0 472551.0 0
127781.0 471955.0 0
132532.0 472447.0 0
137546.0 472459.0 0
142781.0 471928.0 0
146970.0 472275.0 0
151982.0 472172.0 0
156906.0 471114.0 0
161341.0 471929.0 0
166557.0 471475.0 0
172944.0 471224.0 0
178347.0 471110.0 0
183504.0 469962.0 0
188575.0 471190.0 0
192500.0 467865.0 0
193546.0 472019.0 0
198231.0 471424.0 0
203926.0 472023.0 0
213694.0 471092.0 0
209360.0 472264.0 0
217628.0 472635.0 0
222062.0 472476.0 0
226838.0 471144.0 0
232238.0 472131.0 0
235811.0 467705.0 0
246498.0 468420.0 0
248427.0 472507.0 0
257233.0 471527.0 0
263763.0 467935.0 0
262325.0 472114.0 0
267144.0 471768.0 0
271667.0 471100.0 0
276981.0 471502.0 0
282032.0 469123.0 0
282819.0 472812.0 0
287500.0 472524.0 0
291720.0 467904.0 0
292854.0 472411.0 0
298219.0 471289.0 0
303078.0 472283.0 0
307741.0 469156.0 0
307469.0 472450.0 0
312501.0 472719.0 0
317499.0 472483.0 0
322454.0 471991.0 0
327570.0 467763.0 0
327500.0 472505.0 0
332500.0 472577.0 0
340988.0 468317.0 0
337697.0 471942.0 0
343300.0 471324.0 0
350615.0 468592.0 0
347718.0 471785.0 0
352664.0 472446.0 0
361429.0 471484.0 0
357754.0 472012.0 0
365098.0 471169.0 0
372819.0 470880.0 0
378807.0 470689.0 0
382082.0 471523.0 0
388270.0 471481.0 0
393506.0 471670.0 0
398075.0 472219.0 0
402971.0 470875.0 0
408142.0 469208.0 0
412373.0 471145.0 0
416641.0 472941.0 0
419708.0 469104.0 0
424199.0 470545.0 0
428913.0 469905.0 0
431167.0 473593.0 0
433828.0 470321.0 0
441522.0 471266.0 0
437793.0 472275.0 0
449769.0 471802.0 0
454026.0 474890.0 0
31436.8 482337.0 0
35177.9 481037.0 0
39416.2 478740.0 0
44484.9 476284.0 0
50435.6 477968.0 0
60933.7 474518.0 0
56232.3 478564.0 0
62569.6 478570.0 0
67356.6 476253.0 0
72572.3 477059.0 0
78346.0 476879.0 0
83555.7 475847.0 0
88370.9 476687.0 0
93597.8 477682.0 0
98379.3 476268.0 0
108280.0 476114.0 0
112585.0 477446.0 0
116779.0 477306.0 0
120879.0 477100.0 0
125949.0 476327.0 0
141018.0 476057.0 0
146332.0 477163.0 0
156284.0 475673.0 0
161742.0 477617.0 0
170035.0 476046.0 0
176329.0 476888.0 0
182215.0 475114.0 0
188080.0 477355.0 0
194289.0 477037.0 0
200001.0 476511.0 0
204284.0 477531.0 0
208101.0 477131.0 0
213293.0 475900.0 0
217709.0 477578.0 0
222580.0 476751.0 0
226891.0 476146.0 0
232469.0 477596.0 0
237726.0 472941.0 0
237476.0 477367.0 0
243325.0 472847.0 0
246892.0 476607.0 0
252645.0 472960.0 0
251842.0 477866.0 0
257687.0 476280.0 0
262673.0 476896.0 0
267437.0 476232.0 0
272993.0 476368.0 0
279895.0 475485.0 0
283581.0 477754.0 0
287242.0 477833.0 0
291057.0 476758.0 0
296771.0 476352.0 0
302261.0 477526.0 0
307720.0 476880.0 0
318207.0 477078.0 0
322500.0 475995.0 0
326792.0 477892.0 0
336461.0 476597.0 0
331833.0 477668.0 0
341350.0 475502.0 0
346764.0 476161.0 0
351817.0 477272.0 0
355946.0 475846.0 0
361157.0 476181.0 0
366391.0 475275.0 0
370951.0 477140.0 0
377468.0 476568.0 0
384042.0 475099.0 0
391753.0 476293.0 0
396513.0 476425.0 0
402101.0 477051.0 0
408179.0 474886.0 0
421350.0 474525.0 0
418061.0 478297.0 0
426746.0 475262.0 0
430947.0 477707.0 0
435021.0 475781.0 0
440622.0 476533.0 0
445309.0 474411.0 0
449349.0 476958.0 0
458440.0 476829.0 0
456429.0 479834.0 0
462079.0 480097.0 0
466586.0 482158.0 0
25499.8 487514.0 0
28752.0 484339.0 0
33556.1 485940.0 0
38623.3 483787.0 0
43584.1 482829.0 0
46952.6 480036.0 0
48987.7 483215.0 0
52896.6 481717.0 0
55889.2 483467.0 0
59306.7 481791.0 0
63080.5 483363.0 0
66878.8 480849.0 0
71419.5 482256.0 0
75546.4 480863.0 0
81955.1 479303.0 0
79590.9 482354.0 0
84480.2 482297.0 0
89506.6 481679.0 0
98561.8 481607.0 0
103281.0 477774.0 0
108035.0 481605.0 0
113385.0 481738.0 0
118401.0 481771.0 0
123658.0 480996.0 0
127500.0 482625.0 0
131183.0 478197.0 0
136467.0 478098.0 0
137800.0 481998.0 0
142524.0 482160.0 0
151858.0 478764.0 0
148049.0 481759.0 0
156848.0 481089.0 0
160437.0 482420.0 0
166551.0 479466.0 0
170848.0 482076.0 0
182238.0 480591.0 0
186638.0 482981.0 0
191654.0 482491.0 0
197217.0 481785.0 0
203041.0 481671.0 0
214367.0 481564.0 0
218752.0 482746.0 0
222135.0 481018.0 0
227615.0 481680.0 0
234217.0 482032.0 0
237740.0 480710.0 0
241821.0 478012.0 0
241881.0 482607.0 0
246360.0 481800.0 0
255903.0 481025.0 0
260366.0 480677.0 0
266391.0 480933.0 0
271781.0 482647.0 0
278354.0 480981.0 0
284349.0 482498.0 0
288760.0 481014.0 0
292982.0 482732.0 0
298939.0 482665.0 0
303978.0 482845.0 0
307500.0 482669.0 0
313218.0 478026.0 0
312169.0 482489.0 0
316200.0 481794.0 0
321026.0 481361.0 0
325828.0 482853.0 0
329875.0 481493.0 0
339752.0 480903.0 0
346033.0 482416.0 0
352774.0 482841.0 0
357284.0 479803.0 0
361586.0 482226.0 0
366431.0 479969.0 0
371698.0 482759.0 0
382470.0 480651.0 0
386878.0 482562.0 0
387886.0 478422.0 0
398761.0 482180.0 0
406568.0 480052.0 0
403476.0 482341.0 0
410721.0 481811.0 0
413194.0 477594.0 0
415123.0 481806.0 0
423571.0 479093.0 0
423172.0 483194.0 0
428089.0 481819.0 0
433139.0 481239.0 0
436997.0 480012.0 0
440616.0 481331.0 0
445289.0 480372.0 0
449781.0 481111.0 0
452872.0 479176.0 0
453673.0 483429.0 0
458173.0 482697.0 0
457313.0 485767.0 0
460764.0 485171.0 0
465106.0 485935.0 0
470670.0 485571.0 0
475319.0 487311.0 0
18346.8 491294.0 0
21462.0 489042.0 0
28410.0 491567.0 0
29650.0 487874.0 0
32402.1 490529.0 0
37554.5 487639.0 0
36588.6 491494.0 0
41616.5 488451.0 0
46803.1 487572.0 0
52340.3 487214.0 0
59029.4 486366.0 0
63588.1 487673.0 0
67695.5 485538.0 0
72325.6 487795.0 0
75824.0 484895.0 0
79876.8 487618.0 0
85134.3 487269.0 0
89860.4 486551.0 0
93748.0 484080.0 0
93693.5 488227.0 0
97604.3 486928.0 0
101622.0 487594.0 0
103282.0 483693.0 0
106218.0 487399.0 0
111573.0 486307.0 0
116873.0 487027.0 0
122290.0 486157.0 0
127092.0 486733.0 0
131368.0 487436.0 0
132727.0 483021.0 0
136708.0 486564.0 0
142340.0 487855.0 0
147129.0 486046.0 0
151897.0 488014.0 0
153413.0 483423.0 0
158025.0 487006.0 0
164449.0 483162.0 0
167096.0 486005.0 0
163726.0 487648.0 0
171019.0 488076.0 0
177039.0 483453.0 0
182917.0 487454.0 0
193672.0 486588.0 0
189182.0 487393.0 0
198236.0 487669.0 0
203163.0 486771.0 0
208744.0 483467.0 0
212128.0 487698.0 0
216352.0 486170.0 0
221211.0 486390.0 0
232003.0 486597.0 0
237938.0 485441.0 0
242866.0 487206.0 0
248063.0 486912.0 0
251551.0 483134.0 0
252913.0 487167.0 0
257744.0 486207.0 0
262647.0 484263.0 0
267630.0 486836.0 0
278478.0 487645.0 0
283569.0 487084.0 0
288833.0 486333.0 0
293486.0 487312.0 0
302639.0 487150.0 0
307163.0 487509.0 0
311988.0 487220.0 0
317034.0 486207.0 0
322356.0 486926.0 0
331012.0 487014.0 0
327217.0 487695.0 0
334358.0 483432.0 0
341399.0 486375.0 0
337036.0 487384.0 0
357782.0 486380.0 0
366902.0 484873.0 0
362847.0 487218.0 0
377612.0 484095.0 0
382912.0 486834.0 0
392440.0 483444.0 0
387755.0 486660.0 0
402111.0 486299.0 0
406954.0 485210.0 0
412347.0 485754.0 0
415173.0 487761.0 0
418909.0 483980.0 0
422842.0 486780.0 0
426539.0 486804.0 0
431628.0 486986.0 0
436474.0 484473.0 0
442207.0 486109.0 0
448435.0 485363.0 0
453912.0 488292.0 0
458790.0 489668.0 0
462734.0 488626.0 0
468015.0 489993.0 0
473395.0 491619.0 0
479072.0 490555.0 0
7927.57 497545.0 0
11344.6 495512.0 0
14582.0 493530.0 0
18502.1 495661.0 0
23296.8 492631.0 0
27286.7 496083.0 0
32681.4 494863.0 0
37691.1 495858.0 0
40456.2 493051.0 0
44754.5 492375.0 0
49187.4 491040.0 0
52157.2 493487.0 0
56308.9 491190.0 0
60857.7 490606.0 0
65639.3 492425.0 0
70601.2 491301.0 0
73865.6 491876.0 0
78157.7 492587.0 0
83725.2 492691.0 0
89415.6 491551.0 0
93983.0 492332.0 0
102407.0 492386.0 0
98042.5 491435.0 0
107236.0 492690.0 0
111661.0 491121.0 0
115888.0 491803.0 0
121313.0 492203.0 0
127796.0 491969.0 0
133592.0 491815.0 0
138952.0 492350.0 0
143931.0 492453.0 0
148546.0 492121.0 0
152928.0 492623.0 0
157120.0 492709.0 0
161510.0 491487.0 0
166774.0 491352.0 0
176746.0 489735.0 0
186834.0 492374.0 0
192364.0 491913.0 0
202588.0 491302.0 0
207341.0 488840.0 0
210634.0 492261.0 0
216364.0 492025.0 0
222663.0 492118.0 0
226322.0 488262.0 0
236112.0 490444.0 0
241014.0 492881.0 0
250979.0 491343.0 0
256822.0 492413.0 0
262875.0 489837.0 0
268291.0 492237.0 0
[...]
POINT_DATA 5000
SCALARS Radius float 1
LOOKUP_TABLE default
5113.21 4107.03 4478.15 5379.87 5925.6 4792.73 4736.58 4931.38 3485.26 4329.05 4151.94 4049.23 5337.48 6124.89 5708.81 5252.48 4780.03 5495.39 3996.0 3856.1 4665.12 3383.4 4133.88 4834.9 3850.77 6044.04 5415.48 5120.0 3863.18 4998.37 6182.6 5492.18 5258.36 5061.3 3642.12 3163.97 5812.43 5906.14 7513.1 5254.28 5733.48 4672.91 5580.89 5645.7 6810.52 5840.26 6110.27 5561.06 5073.35 5670.04 4380.59 6716.79 5759.91 7613.27 5529.52 4951.03 5255.32 6037.08 5096.78 6756.95 4129.43 6324.23 3843.58 3320.52 4194.5 4270.53 5344.25 5191.63 4593.7 4216.92 4150.99 4177.94 4742.68 5634.83 5782.6 4862.21 3929.19 4502.5 3771.48 4043.57 5681.38 4138.42 4501.51 3708.04 5513.6 3240.09 4556.36 6082.81 3191.99 4685.34 5601.05 4929.8 3586.91 3103.0 3554.9 4015.92 5542.21 4487.31 3936.02 4044.71 5980.74 4094.62 4927.02 5546.39 5325.36 5484.83 5085.53 5351.6 2356.98 4730.36 4715.55 5867.73 3951.75 5013.56 4499.64 4375.68 5542.27 5054.98 5122.66 5484.19 3557.27 4688.68 4436.4 4402.52 4517.56 4182.53 5903.42 3588.44 3955.56 3761.32 5176.86 4118.05 4366.19 5553.16 3672.51 2938.66 4940.78 4231.61 4008.92 3615.22 3942.53 3379.84 3589.27 4827.82 3997.1 3607.45 3260.67 5123.52 3038.33 4392.68 4333.2 7199.21 4523.7 2240.39 5091.39 5293.9 3912.37 6142.94 4727.24 4602.25 4790.08 5082.47 4763.45 5445.87 3815.26 4704.72 4344.58 4571.7 5495.84 6268.1 3471.03 5253.55 5820.48 7034.11 6261.42 4271.69 5499.11 5922.5 5198.77 5987.17 6013.14 4901.41 5110.37 5664.98 4382.74 4651.28 4384.42 3693.63 4516.43 5481.78 5043.05 5816.2 5109.54 6483.19 5945.65 6759.9 5538.89 7021.47 5416.38 6059.59 2720.68 4955.55 5701.86 3563.63 4238.81 4468.59 5885.03 6030.06 2837.58 5170.02 5200.76 4927.31 5017.13 4862.64 5185.34 4432.58 6684.56 3968.64 4688.67 2635.86 5292.64 6166.5 5065.13 5936.02 4861.08 4003.05 5390.22 4805.87 4712.33 5227.21 5697.78 4667.36 4091.31 6372.62 4295.38 5615.42 7565.34 5923.5 4612.68 4973.83 6342.25 6691.39 5344.0 5135.69 6045.46 4245.72 5908.1 6048.7 5896.46 5022.8 4861.06 3784.5 6481.79 5320.28 5960.66 3979.26 6608.73 5011.84 6946.21 2586.12 5433.8 4011.77 4527.08 3633.87 4850.01 3970.25 5147.67 3979.82 2765.2 5011.31 5138.31 5264.06 6327.9 5927.43 6355.42 4362.19 5690.56 4948.92 3115.91 5637.59 4937.14 3307.12 5924.89 5693.81 4002.16 4174.52 3486.22 3829.13 6230.49 5418.62 4601.27 5493.32 5740.68 5926.61 5836.15 3261.21 4345.55 6704.06 3653.41 3871.88 5325.02 3856.01 5246.2 5279.39 3673.74 5205.43 6116.18 7447.37 4924.6 4385.06 4733.32 7184.19 2899.43 2924.37 5305.17 3867.67 4290.3 5399.73 4660.72 3888.21 6038.78 6902.81 6644.76 4254.17 5629.19 5090.24 5740.84 5530.87 4310.18 4281.49 5978.9 4187.56 3629.62 4997.27 4840.84 4301.06 4020.32 4290.14 6562.18 4156.38 4541.21 4164.68 6133.92 3719.84 4178.4 5934.22 3780.23 3095.48 4166.08 5374.51 6739.08 4797.52 4796.58 4298.67 4962.09 3999.48 4203.26 4359.62 5188.81 6057.22 5062.71 6125.34 5347.48 4810.12 5643.58 5215.05 4292.06 5577.04 5006.58 4602.86 4659.59 3688.8 4548.16 3369.23 4048.37 5449.18 5492.26 5244.78 5762.84 3937.74 4749.8 4493.48 6084.86 5478.92 4778.34 5551.36 4138.16 6894.71 4684.5 3091.3 4414.54 5789.98 6458.82 7054.71 3641.64 5489.43 5747.75 4277.89 6051.14 4796.33 4195.44 5539.32 6496.85 5600.93 4874.39 5541.59 4390.66 4124.71 5728.85 4827.23 4911.47 5863.59 4381.97 6257.19 3255.82 2812.98 4065.69 5603.15 4695.45 6052.7 3921.18 3798.62 5891.05 5308.1 3666.57 5655.21 4786.6 4645.41 6445.94 5542.14 7134.64 4218.06 4716.19 5514.76 3456.98 3498.2 4877.67 3066.13 4302.5 6006.16 5316.75 7055.53 5669.65 5624.49 5762.59 4123.6 5224.12 7042.12 6326.39 4319.79 4471.58 4569.12 6098.14 5873.69 6222.42 5654.31 4730.41 3745.84 5690.26 4156.2 4497.59 5965.78 4374.35 6396.74 2775.04 3821.72 4986.77 6318.18 5586.81 3948.17 4551.24 4621.75 5358.59 4220.88 4515.71 6519.71 6640.13 5082.6 5810.84 4230.54 5094.44 3748.24 4655.49 4467.94 4850.81 6138.47 5527.54 5573.7 4727.62 5054.25 4055.8 7325.81 5280.17 5360.19 4794.96 6186.19 5083.08 6834.49 6337.56 5525.39 5803.39 4024.3 6394.38 5555.28 5242.73 4737.14 4686.65 5834.74 5556.96 5788.23 5581.75 6392.01 4907.89 6730.19 4937.02 4907.06 4073.93 3735.44 6043.3 5952.75 4433.59 4320.28 6122.55 2739.94 4931.53 5480.13 6308.71 3323.28 6695.82 6405.76 5794.24 5105.16 5448.61 5050.65 4827.33 6009.88 5013.67 5513.57 5826.04 5339.78 4143.78 7092.87 4850.14 5163.55 4819.73 6817.32 3382.7 6471.55 2965.01 5499.39 6643.85 3637.61 4472.17 5501.93 5463.38 5945.21 4938.74 5696.88 5607.14 3923.03 5975.63 5252.34 4274.61 4138.46 2965.79 6898.19 6035.6 4481.53 5330.45 4581.13 3610.4 4219.07 6387.01 5367.52 3092.35 4322.15 5210.03 5478.47 5351.39 6142.37 6061.47 4933.21 5375.47 6038.14 2540.31 5120.49 6029.66 5262.61 6302.8 5697.4 6038.2 4270.95 4005.44 5206.78 6732.43 6425.26 5143.58 4484.76 4839.34 4840.01 2980.99 7933.0 4455.12 3998.5 5173.87 5938.34 5380.13 5118.27 5169.36 5932.23 5791.61 3369.13 4479.66 3043.85 5461.13 4726.76 3599.45 5489.34 5163.9 5708.14 5537.72 3920.42 6332.36 6155.31 4223.33 5911.67 5709.62 5835.78 4127.74 2476.04 4678.38 3942.07 7443.72 3937.08 5260.34 5206.48 5729.23 5226.0 3365.82 4538.95 4970.88 4666.81 4763.66 4636.5 4940.42 3954.91 3703.1 5923.4 5085.71 6116.33 5644.82 6343.14 5774.97 5462.21 5750.71 5470.77 4831.47 4643.85 6062.05 4004.04 4289.17 5082.74 5564.02 6072.45 4410.55 5526.14 5137.34 5423.0 3856.59 5413.79 6338.89 6202.55 5025.39 4714.54 3629.96 5893.5 3320.11 5030.91 6022.17 5119.37 6163.38 4566.18 4723.12 3459.9 4964.09 5201.36 5024.9 4306.53 5409.61 5094.81 5972.06 5713.22 5555.88 5028.96 4359.04 3866.16 3794.63 6362.12 3778.1 5152.36 4511.82 5611.2 4220.65 6820.42 4816.2 4894.16 4896.52 5711.87 4751.02 3372.79 4941.22 5282.64 4715.72 4669.66 4808.52 5367.2 5607.24 5053.92 5839.13 6352.26 5495.68 4863.72 5002.48 4262.82 5102.36 8332.24 4342.9 4553.56 5329.64 4051.44 6049.55 5941.72 5991.09 5133.97 6600.94 4788.58 5371.02 6155.1 4709.35 6586.45 4373.3 5029.78 4750.78 4163.5 5724.64 5965.15 4780.2 5078.86 5100.1 6090.91 4946.42 4963.34 5019.93 5081.78 4260.92 6263.44 5960.56 4118.84 4020.95 6313.06 3474.39 3493.7 6470.3 4200.03 4735.33 6915.83 5092.37 6444.77 7099.43 4287.63 5198.29 5315.4 6449.45 5077.33 3975.31 4746.52 3689.45 3824.16 5572.95 3868.18 6723.16 5584.06 7111.16 4547.19 3817.13 5507.24 3982.23 4583.31 4503.89 5806.08 4853.39 4997.27 4093.08 4809.42 5543.27 4717.05 5659.17 6135.57 5998.38 4312.67 5423.8 5861.71 3183.98 4989.15 5017.78 4524.28 5015.69 6175.81 4727.24 6677.09 5826.64 4829.35 5201.67 6321.41 4089.76 5526.55 3192.41 5184.56 4987.87 3315.57 5804.71 5046.33 4764.96 5727.3 4242.52 5356.51 3847.38 3818.59 3057.03 4087.15 4143.08 7500.97 6623.85 5228.18 5787.31 5065.11 5069.84 4050.9 4978.31 4241.89 4099.77 5054.74 4537.32 4656.78 5126.91 3600.43 5131.24 5196.67 5876.71 6262.72 3664.11 6515.84 2990.77 4888.6 4739.14 4918.77 3561.29 4371.99 4219.78 3885.86 3295.83 5235.29 4459.28 4479.94 6250.23 6413.02 4863.27 5862.86 6049.79 5374.98 4719.7 5274.19 6939.12 4406.4 5411.85 4844.57 4027.46 6314.07 5776.37 4516.28 3627.82 4044.45 5125.78 5344.43 4373.47 5045.38 5350.88 5372.61 3686.21 6480.17 5023.15 4377.07 6851.54 3813.22 5570.3 4336.42 5243.29 7589.94 3130.65 4449.22 5628.24 5856.11 5287.2 4109.88 4234.94 4562.29 5013.13 5080.66 4270.24 3417.33 4926.42 4164.13 4642.34 4520.1 4947.52 5874.89 4305.57 4293.03 6959.81 4389.21 3791.79 4424.7 4925.44 4754.05 6084.93 5215.15 3697.96 4739.42 5538.93 5020.12 2631.9 4745.45 5281.28 6255.18 4277.88 4668.71 4758.21 7228.46 3948.23 5978.82 5266.5 3927.99 5868.82 4948.98 5227.52 4414.48 4092.24 4981.9 5163.02 7144.24 4906.82 5687.83 5004.23 6442.69 6496.67 5474.8 6607.87 5117.47 4721.32 3163.78 4925.63 5882.65 4434.19 5187.7 4623.61 4188.3 6261.75 5177.64 4255.31 5453.3 4094.73 4407.9 3492.19 4440.57 4584.5 5122.63 4703.08 2315.64 6345.13 5226.56 5516.95 5313.22 4413.85 3999.94 4864.22 4470.98 5759.46 3921.08 4190.31 5678.96 5262.19 4244.9 6070.58 6034.41 5130.91 5402.24 4519.22 6445.22 5101.59 3844.9 3963.86 3848.93 4306.11 5935.47 3402.32 5903.66 4528.49 5004.67 5365.89 3327.49 5992.26 3960.8 5070.39 4980.85 5714.58 5110.45 5208.32 5248.77 4083.97 4607.02 5153.74 3895.51 4528.09 4165.81 5813.4 6291.51 4128.98 5882.89 6246.22 4951.47 4188.32 5246.61 4307.28 4100.38 5344.77 4723.48 4899.11 5097.87 4278.07 7267.18 5320.92 5269.18 4406.1 6362.14 5034.59 6719.88 5080.18 4454.63 5912.61 4523.88 3279.1 4066.38 4403.98 4560.84 4729.43 5776.57 4562.74 5598.74 7493.3 4814.55 6320.71 4648.04 3464.83 5698.77 6413.11 4305.16 3293.56 5092.28 5274.14 4965.89 4903.82 5746.28 4152.85 4082.47 5511.6 4338.08 4517.73 4378.3 5469.47 6134.99 4989.56 4718.54 6736.03 5548.29 6766.43 5916.16 4390.41 5599.49 4097.57 3905.51 5017.5 5563.79 6171.13 3901.8 5511.88 5083.41 7055.42 5486.68 6048.86 4285.32 5490.43 5022.28 5452.83 4959.34 4948.5 4527.02 4531.14 3695.36 4564.34 3838.56 4871.44 5076.35 6020.48 6375.99 5200.05 5234.29 5313.66 5419.37 4466.03 4511.54 5409.33 5196.0 4923.9 4973.78 3329.99 3947.47 3296.27 4713.25 4204.84 6243.0 6673.96 3556.85 5441.96 3435.9 5174.89 4288.3 5370.52 4652.29 5774.81 3746.31 5498.32 5027.98 5346.27 6475.1 4969.21 2691.29 2845.98 6256.02 5314.85 4305.43 5450.44 4942.77 4263.33 5592.32 5381.16 6193.35 6086.96 5233.78 3701.27 5653.9 5046.21 5683.26 5894.61 5139.5 5304.13 5944.09 5833.06 3527.05 4923.41 2477.07 4497.31 5384.76 5529.42 5257.12 5243.43 5659.95 5551.9 2908.7 4453.64 3757.34 6415.61 4687.64 4419.71 5660.16 4541.8 3838.47 2588.37 6235.57 3623.87 5412.31 3087.09 6934.37 6113.95 4050.08 3981.07 5452.42 5328.22 6853.85 2395.5 5941.61 4512.11 5782.48 6248.6 3836.45 5683.61 5100.25 6894.26 4986.51 5197.52 5178.99 5383.07 4591.87 5013.42 4790.78 4247.15 6552.22 5651.07 6248.81 5273.35 4645.58 2651.49 5512.23 5275.32 5985.29 4898.94 4178.15 4613.31 4733.04 6119.09 5788.66 5091.68 7531.29 5069.25 5048.89 3161.47 3991.03 6390.78 7435.25 6826.57 4788.87 4495.87 6022.72 4643.31 5527.33 5402.21 4989.09 4880.14 5289.52 4982.31 4307.48 3848.54 5941.4 5331.02 6510.17 5742.65 4871.96 4863.23 4402.67 5565.13 4470.61 4384.88 6887.27 6008.49 4806.34 4287.53 5612.21 4929.14 5945.08 3979.54 3306.14 5490.58 4863.79 4702.06 3830.46 6031.67 4689.15 6138.12 4428.78 5409.66 4537.14 4345.67 4765.72 4642.66 4752.14 5329.59 4888.12 5037.06 5512.16 5175.29 5842.56 5887.15 5203.08 7480.41 3423.15 4890.5 4488.85 3731.84 4901.07 5186.3 3436.15 3497.9 4151.76 4020.4 3493.47 4596.75 5443.58 4558.46 5805.86 4470.4 5311.03 5339.38 5255.12 6169.11 5615.35 4027.09 6422.84 4502.18 5379.09 4602.85 4962.77 5872.05 4853.02 4091.8 6259.23 5181.4 5670.2 4711.62 4247.23 4268.65 4694.83 5509.42 4354.08 4256.43 5936.36 4520.62 3903.75 4755.47 5935.03 4485.99 5127.16 5475.8 5314.69 6050.81 5543.46 4249.46 5965.81 3702.37 4750.17 5660.85 2330.66 4177.19 6917.52 3587.05 6229.37 6718.19 5282.91 4425.84 7256.35 4800.69 3555.86 6386.78 4631.83 4996.99 6081.14 5480.83 4220.46 4607.85 5128.57 6000.7 3169.67 5604.21 4968.03 3361.92 6710.88 5395.14 3967.48 6213.04 3685.13 6790.73 4655.16 5251.4 3867.19 5857.79 4039.91 5276.7 5036.58 6119.63 4950.97 4752.9 3197.63 4287.16 4863.96 5199.44 5191.08 4435.51 5374.07 5163.77 4588.7 3766.55 4579.69 3554.48 6496.52 5005.85 4216.17 6484.17 4721.02 4254.37 3374.08 4933.65 4031.78 6098.1 5708.99 4049.02 5346.68 5296.29 4611.53 4285.66 4896.11 5172.53 4135.62 5801.99 5534.94 5210.48 7552.94 5323.3 5088.44 4998.21 4662.56 4114.24 5349.31 2976.22 4649.22 5394.55 5094.52 4946.74 2682.24 5928.32 5229.48 5475.7 4016.18 5526.75 5435.74 4244.99 5327.45 5560.26 6185.89 3997.96 4439.35 3460.94 3990.25 3691.0 3758.07 4752.51 4236.14 4407.87 5733.62 5282.51 4460.92 3797.33 5945.89 4042.28 4105.55 4340.76 6566.1 6065.22 4221.28 4456.39 4896.39 3633.79 5421.53 5937.08 6070.3 5233.29 4312.56 4612.06 5204.04 4750.58 6667.68 5235.11 5211.38 6622.11 4590.55 5920.32 4255.85 5097.69 3988.3 6543.13 5149.72 5776.96 5464.25 5411.02 5301.47 4617.55 5424.88 4062.5 5415.85 8659.64 5683.95 6027.62 5010.2 6123.03 5966.61 5711.11 4575.94 4938.72 3546.71 5768.57 5564.23 5950.04 5687.85 4231.83 2435.33 6401.43 5020.71 2681.29 5094.48 3872.61 4238.4 4318.48 6132.95 4860.33 7644.38 6004.68 4051.34 6101.92 3627.55 6239.84 4635.6 4256.67 3457.48 5166.79 3931.07 3405.98 5417.15 3688.16 4681.72 4945.39 5996.33 3950.63 5415.19 4612.62 3619.07 4467.04 4275.57 6385.23 2983.99 2614.4 6363.92 6205.93 4923.24 5830.72 6184.4 3828.81 4373.45 4082.57 5255.18 5169.9 3004.16 4767.78 5235.17 4421.12 4779.5 5254.49 6649.96 4303.19 5514.84 5784.3 4256.57 3914.2 6088.68 4135.08 5620.74 4778.82 6124.08 5467.84 5053.95 5926.11 5253.37 5767.9 6515.8 5089.62 5869.4 4741.26 3701.16 4186.6 5895.77 4732.09 6136.49 4356.25 4216.95 4209.49 5742.74 5486.48 4947.24 3645.12 3875.05 6200.54 5148.58 4199.45 6599.66 5469.13 4233.8 5765.42 4997.83 4893.49 5325.44 5021.88 5956.65 4498.25 4188.87 3735.24 6574.95 4074.48 4558.47 5731.57 5997.88 5839.71 5576.92 6408.83 5266.22 3930.79 5226.97 4004.35 3685.13 3312.06 3361.26 6799.4 5278.36 5865.39 4427.28 6079.11 3082.32 6430.39 7440.72 3949.6 5703.6 6326.18 5661.62 6631.19 6648.68 4713.74 5626.61 5817.25 4084.49 5061.98 6632.99 4537.6 5147.36 4419.61 7177.44 4563.46 5309.98 6553.94 5460.65 5652.0 5463.41 5225.33 4929.75 4435.36 6045.22 5134.39 3532.3 5769.98 5442.32 2221.99 4643.56 3580.58 4863.01 5356.79 5657.36 3619.79 5029.47 6306.21 5266.01 2978.76 2040.66 7016.27 3876.21 3685.65 5689.26 4916.22 6022.7 4940.84 5750.07 4809.67 4757.74 6045.67 3946.28 3821.94 4244.21 5439.9 5367.73 3540.11 3456.47 4652.01 5421.64 7234.66 4207.54 4055.54 4886.12 6419.12 4976.12 6098.95 5453.98 3991.42 4388.63 5102.75 4597.29 4200.09 5931.77 5151.21 6333.29 4477.04 3886.68 5703.74 5662.55 5737.92 5365.24 4360.23 5293.51 4763.96 5754.18 5180.76 5008.63 3418.99 4480.95 4993.35 4409.63 5521.25 3661.9 5370.85 5949.46 3658.37 3178.54 4765.02 5376.71 4448.13 5070.29 4807.28 4867.08 4266.03 5280.69 4220.03 6923.84 5407.78 5449.46 6179.96 6113.54 4662.43 6260.79 3963.76 5528.53 6799.88 3062.43 5726.66 5426.78 2967.38 4159.35 6477.91 4237.98 6439.37 4081.97 4614.3 5401.99 5580.92 5973.33 5067.46 3583.21 2511.46 4011.37 2775.69 4785.25 6519.43 5876.64 5424.46 4857.84 4908.49 4962.21 4858.44 5884.9 3468.42 4673.35 4771.13 4992.42 5297.19 4351.38 4833.46 5933.7 7248.4 5280.12 5984.81 3498.16 4409.27 4640.06 5471.74 3548.39 3673.28 4858.51 3375.28 5625.65 4301.61 6107.89 4817.16 4446.84 5660.55 5148.08 4834.87 5760.22 3672.21 5938.17 4795.43 5398.64 5097.95 6817.57 4693.52 3614.96 6853.04 4745.43 5831.96 4747.55 3056.7 3755.95 6234.32 4586.19 4446.06 3450.93 4270.74 5132.68 6595.03 4558.15 6218.95 5222.16 5107.23 5136.08 5558.68 3776.94 4010.57 5629.39 2684.03 6157.04 4768.61 2261.36 5075.55 4522.21 5506.19 6719.94 4950.67 5227.59 6166.29 5453.6 5703.07 5294.77 4709.05 4630.82 4043.66 4813.08 5860.67 4540.86 5990.52 4835.83 5604.35 6316.56 3091.67 4332.87 6420.81 4715.58 4450.7 5151.52 5369.08 4347.74 5291.9 4009.62 2081.58 6505.78 5461.55 6865.76 6449.64 6464.8 4684.44 4749.59 5799.69 5571.72 3809.69 3208.96 7051.9 4184.23 4144.57 5550.75 6834.41 6226.14 5466.33 4444.97 3000.29 5721.05 4247.69 4514.39 4588.99 4321.21 4344.34 4928.27 3583.49 5052.84 4366.74 5297.16 3184.64 5206.33 5530.49 5653.03 3718.69 4514.79 2216.82 4509.89 6752.75 5269.38 5607.3 5108.06 3573.73 2928.82 4222.4 4000.43 3420.08 4568.41 4912.04 4539.07 5464.68 2685.81 5591.76 4585.31 6625.18 5323.91 5097.45 6293.89 5737.75 2761.07 4983.39 5366.52 4690.55 5533.72 5533.42 4802.32 3678.08 4599.38 5246.47 4187.31 6191.29 3240.51 7422.36 5161.01 4298.15 4628.4 5832.37 6051.83 4642.93 5409.63 4263.16 3973.12 3077.84 6024.75 6109.49 5567.93 5987.42 5332.65 3764.1 4442.22 6451.33 5413.31 3012.99 6400.08 4743.59 5208.14 3317.83 3763.05 5092.24 5549.49 3101.75 4518.04 4766.06 4874.18 5435.19 3298.2 4270.15 4953.1 5818.95 4093.99 3940.49 4406.05 4680.94 5828.35 5876.72 5236.43 5285.07 4680.14 4608.41 4187.94 5980.59 3796.15 4801.8 7216.98 5271.02 4209.31 5718.28 6242.79 5950.45 5713.03 5849.65 4165.21 5134.67 4215.0 4936.96 4481.76 5452.78 5065.26 4304.41 6192.0 4940.28 5885.28 6579.31 3004.34 3022.6 4811.76 4914.45 4698.87 3624.7 4661.03 5262.35 4691.91 4475.83 4510.8 5889.35 5010.04 4394.56 4570.98 4275.07 5825.38 4185.61 4047.87 5742.47 3778.02 6552.21 5417.8 5146.37 7132.12 4836.16 5518.57 5151.11 5463.48 5730.33 5545.46 4527.99 4376.7 5190.61 8325.01 3764.06 4440.81 5941.9 5434.47 6642.76 5829.22 4497.78 4243.79 5811.18 5433.65 4008.15 4887.76 4669.06 4811.32 4286.49 6184.88 5829.32 4396.25 5551.95 3918.87 2275.45 5423.42 6605.86 5012.5 4383.56 3562.79 7093.13 4516.53 4122.92 3604.14 4452.54 5089.1 4028.32 2711.19 4099.92 4884.59 3858.06 4511.7 4083.79 5263.27 6300.92 5021.77 4173.54 5599.29 6038.68 5046.12 4807.4 7013.17 3805.67 4601.74 6506.86 5088.57 5580.34 3852.6 5775.31 4706.5 4603.5 4647.67 5375.12 4356.36 4892.44 5578.94 7610.49 4286.17 3684.56 5323.55 5375.1 4172.6 5313.12 5351.56 5160.59 3984.88 4732.09 4320.42 4255.34 5064.79 5480.3 7509.24 4146.81 5896.26 5388.78 6101.13 4573.72 5099.21 4917.99 5636.4 4367.78 4350.12 5227.02 5670.0 4232.16 5300.96 4344.51 5680.94 3781.77 5581.55 5193.01 4543.1 3474.5 6550.44 3860.83 5732.27 4523.39 5278.56 5146.37 6917.62 4013.38 5631.14 4343.78 5263.3 3352.35 4909.65 6523.86 7693.4 4326.48 4437.07 3449.37 5491.9 6405.0 4659.16 5789.55 4633.05 4901.2 5711.62 4990.79 4798.17 5166.79 6479.39 2895.63 4997.91 5079.22 5381.54 5810.77 4714.83 5474.15 7519.2 6355.68 4478.6 3953.55 4304.63 4469.54 4314.56 3928.53 5606.51 5740.65 3834.47 6349.67 6329.53 4590.01 6101.86 4227.41 5993.0 4803.57 5966.42 4110.59 3332.49 5354.66 4214.44 5378.23 4787.97 3746.36 6789.23 3989.7 4777.03 4246.61 6028.09 5452.36 3804.5 6486.37 5498.42 5318.53 3344.57 5220.76 4281.98 7165.9 5344.83 7046.11 3427.63 4863.97 6342.48 5756.75 4587.67 5599.7 4163.74 6969.28 3665.95 5698.96 4095.75 3603.51 4298.45 5222.51 6609.84 5135.96 3834.43 5658.37 4707.06 6074.94 5491.37 4250.88 3783.54 6348.03 3475.67 4792.39 7038.89 3863.67 4814.12 5067.56 6137.8 2735.53 5116.6 3747.03 2783.85 4356.49 4526.81 3994.07 4219.94 5907.46 6740.71 4264.91 5399.29 4909.31 5971.22 6522.59 6602.43 3568.28 5425.98 5996.66 4405.42 3598.08 2995.67 4599.81 5698.23 7300.58 3608.06 6633.61 5217.95 4867.7 5484.36 4277.24 4063.9 5291.05 5161.1 4619.2 5166.41 5067.56 2596.96 5701.75 4350.15 4139.3 6541.45 4750.49 5078.31 5391.48 4923.43 5131.15 4847.14 3950.27 5116.66 3566.79 5374.67 4981.43 4741.28 4215.2 5069.89 4157.29 6813.72 5327.75 4609.02 4896.65 4638.18 4196.37 6448.66 4453.97 6945.98 5138.2 5783.48 4701.5 4449.98 4504.35 4771.65 4840.44 5093.82 5951.81 3924.14 6918.35 4296.69 6238.32 3319.67 6804.79 6471.42 5283.8 4076.59 4428.14 5164.1 6464.15 4479.11 4972.17 6685.4 5699.53 4222.77 6332.01 5268.38 5527.23 4805.33 7085.01 5980.95 6193.08 6069.3 5887.01 5168.35 5388.39 5335.47 3728.18 5633.61 5048.19 6799.23 4888.27 4592.15 6487.56 4854.11 4998.22 5533.19 5417.21 5583.61 6063.64 4986.71 7382.3 4022.56 5522.21 3772.3 4855.01 6208.9 4923.57 3340.09 6061.63 2279.05 4829.35 4075.28 8137.11 5484.32 6650.77 4067.96 7104.73 6162.3 3272.75 4264.54 3516.27 7043.44 4263.78 4643.9 5228.75 6047.14 5009.83 5210.38 5717.8 3629.44 5003.78 3299.24 6246.56 4061.6 2603.64 5107.0 6212.15 6502.97 4783.07 4946.23 4852.58 6083.28 5211.6 5806.31 3556.79 5456.71 3503.41 7317.04 6412.67 7001.83 5012.97 4036.91 5589.37 5439.49 6639.64 5212.43 5454.12 4834.3 6348.54 5642.35 6372.13 5369.5 5404.01 6016.19 4124.49 3230.13 5714.25 6176.67 5325.96 4850.06 5016.02 7044.29 4234.18 4920.21 4049.16 3936.95 6153.94 6836.82 3862.77 4631.99 4740.98 3185.39 5128.77 7122.87 5797.36 4243.26 4153.84 5119.86 5084.17 5089.26 4901.44 3776.8 5096.43 6156.21 6104.26 4653.83 2460.79 6171.71 3628.89 6589.82 4668.88 5027.43 5522.75 5867.64 4438.58 6059.93 5602.53 5073.02 6545.43 3472.91 6760.92 4989.2 4711.04 7144.05 4506.18 4824.12 2970.9 6542.5 4383.47 5971.21 5261.19 3104.96 3831.52 4263.65 6106.43 4807.35 5467.63 5666.95 4642.2 4811.22 3683.86 4918.76 5293.75 4208.41 5826.78 5473.72 2856.55 4553.68 5361.87 3758.22 4757.2 3205.68 5561.74 6100.73 4788.08 4745.79 5470.04 49