# vtk DataFile Version 2.0
Time step 50
ASCII
DATASET UNSTRUCTURED_GRID
POINTS 5000 float
202705.0 300168.0 0
207626.0 298335.0 0
213156.0 299464.0 0
209445.0 301552.0 0
221897.0 301567.0 0
231888.0 300510.0 0
271936.0 301298.0 0
279274.0 300204.0 0
291164.0 299855.0 0
297464.0 298039.0 0
202414.0 305204.0 0
206558.0 302645.0 0
206995.0 306952.0 0
211309.0 304648.0 0
217044.0 303724.0 0
228399.0 302671.0 0
224711.0 305091.0 0
232534.0 303815.0 0
230125.0 307091.0 0
237253.0 302395.0 0
242626.0 304593.0 0
249268.0 305142.0 0
255565.0 304393.0 0
260628.0 306074.0 0
266999.0 303960.0 0
271272.0 305798.0 0
275772.0 305286.0 0
281211.0 305915.0 0
286322.0 303305.0 0
292206.0 305373.0 0
297176.0 303325.0 0
203009.0 310465.0 0
210060.0 311006.0 0
214575.0 308392.0 0
217616.0 311924.0 0
220778.0 307896.0 0
225982.0 309236.0 0
231922.0 311068.0 0
235071.0 307500.0 0
244872.0 309711.0 0
239890.0 309298.0 0
249204.0 310669.0 0
253095.0 309667.0 0
257250.0 308796.0 0
264388.0 308044.0 0
261001.0 310588.0 0
268672.0 308844.0 0
273406.0 310013.0 0
278127.0 309590.0 0
284924.0 308279.0 0
282214.0 309943.0 0
288440.0 307720.0 0
289025.0 311119.0 0
292497.0 312227.0 0
296667.0 309415.0 0
201914.0 315024.0 0
206472.0 314655.0 0
213593.0 314942.0 0
218261.0 316201.0 0
222604.0 313480.0 0
228115.0 313903.0 0
225762.0 317261.0 0
232710.0 315222.0 0
236276.0 312532.0 0
236674.0 317002.0 0
241303.0 314644.0 0
246862.0 314245.0 0
251771.0 313993.0 0
256628.0 313501.0 0
261017.0 314892.0 0
265459.0 312868.0 0
270074.0 312704.0 0
268745.0 316201.0 0
273098.0 315785.0 0
276494.0 313281.0 0
280690.0 313417.0 0
285270.0 312422.0 0
283950.0 317466.0 0
289308.0 315362.0 0
296213.0 316577.0 0
203762.0 318973.0 0
209828.0 319364.0 0
216112.0 321139.0 0
222124.0 319265.0 0
229217.0 318711.0 0
233199.0 318785.0 0
235936.0 321124.0 0
240311.0 320457.0 0
244974.0 318732.0 0
249791.0 318238.0 0
254489.0 317947.0 0
252315.0 322248.0 0
259055.0 318904.0 0
256168.0 321799.0 0
264595.0 318975.0 0
269407.0 321121.0 0
270717.0 318537.0 0
273476.0 320452.0 0
278089.0 318104.0 0
281801.0 321642.0 0
285865.0 322644.0 0
288111.0 319343.0 0
290197.0 322211.0 0
291602.0 318949.0 0
293673.0 321551.0 0
297552.0 322399.0 0
202023.0 322907.0 0
202046.0 326619.0 0
206267.0 323884.0 0
211609.0 325097.0 0
216656.0 326792.0 0
221171.0 324565.0 0
226274.0 322888.0 0
229187.0 326584.0 0
231929.0 323119.0 0
232636.0 327366.0 0
237288.0 326109.0 0
244111.0 322533.0 0
241944.0 324484.0 0
245532.0 325609.0 0
247916.0 322739.0 0
250486.0 326581.0 0
254859.0 325697.0 0
260020.0 324242.0 0
266175.0 325303.0 0
271901.0 324509.0 0
277447.0 324329.0 0
282732.0 325517.0 0
286527.0 326462.0 0
290673.0 325919.0 0
294468.0 324952.0 0
297857.0 326731.0 0
202315.0 330524.0 0
207401.0 329033.0 0
213284.0 330440.0 0
220507.0 329243.0 0
223067.0 332242.0 0
225087.0 328327.0 0
230132.0 330057.0 0
234254.0 331107.0 0
239437.0 331967.0 0
242838.0 328419.0 0
247349.0 328929.0 0
245048.0 332895.0 0
249498.0 332061.0 0
253303.0 330250.0 0
257626.0 328838.0 0
262132.0 329668.0 0
266589.0 331005.0 0
270417.0 328750.0 0
274461.0 328752.0 0
269720.0 332059.0 0
280502.0 328009.0 0
277905.0 329005.0 0
276625.0 331477.0 0
279778.0 331338.0 0
283915.0 329782.0 0
288896.0 329795.0 0
294121.0 329418.0 0
298378.0 330308.0 0
201930.0 334350.0 0
201649.0 337355.0 0
205521.0 333767.0 0
204560.0 337756.0 0
208533.0 337576.0 0
209616.0 333264.0 0
213150.0 335522.0 0
218526.0 334039.0 0
223821.0 336553.0 0
227271.0 333155.0 0
231638.0 335010.0 0
236097.0 335892.0 0
240907.0 336595.0 0
244825.0 337469.0 0
248694.0 336268.0 0
253152.0 335282.0 0
258151.0 333836.0 0
263653.0 334734.0 0
260823.0 337727.0 0
268571.0 335911.0 0
273203.0 333186.0 0
277406.0 335355.0 0
282289.0 334608.0 0
286631.0 333414.0 0
288775.0 337382.0 0
291428.0 333512.0 0
295493.0 333736.0 0
293862.0 337780.0 0
298506.0 333197.0 0
297889.0 336588.0 0
202328.0 340769.0 0
205692.0 341528.0 0
212281.0 339518.0 0
209492.0 342425.0 0
213249.0 342651.0 0
216408.0 339505.0 0
221084.0 340044.0 0
228330.0 337975.0 0
225788.0 341718.0 0
233004.0 340635.0 0
238236.0 339875.0 0
242668.0 341560.0 0
247139.0 339931.0 0
246891.0 343463.0 0
251550.0 340883.0 0
256697.0 339263.0 0
261095.0 341780.0 0
264982.0 339312.0 0
269292.0 340815.0 0
273126.0 337926.0 0
273483.0 342774.0 0
280381.0 339014.0 0
276620.0 339937.0 0
284367.0 338282.0 0
282843.0 342748.0 0
286442.0 341375.0 0
290312.0 341746.0 0
294532.0 341977.0 0
297845.0 340458.0 0
202708.0 344967.0 0
206825.0 345666.0 0
211486.0 346489.0 0
216546.0 344486.0 0
214732.0 347546.0 0
221536.0 344975.0 0
229612.0 344326.0 0
226286.0 346972.0 0
230465.0 348888.0 0
233245.0 345810.0 0
237916.0 344826.0 0
242808.0 346449.0 0
246706.0 347411.0 0
250648.0 346359.0 0
256252.0 345785.0 0
261596.0 346550.0 0
265707.0 344388.0 0
269989.0 345722.0 0
273849.0 347888.0 0
278181.0 344242.0 0
282817.0 347582.0 0
286860.0 344850.0 0
291874.0 346440.0 0
297300.0 345201.0 0
201731.0 348531.0 0
202573.0 352000.0 0
204985.0 348778.0 0
208409.0 349179.0 0
206438.0 352085.0 0
210550.0 352173.0 0
213309.0 350008.0 0
215009.0 353020.0 0
217864.0 349303.0 0
222695.0 350273.0 0
226825.0 351690.0 0
229619.0 353106.0 0
233142.0 352503.0 0
235541.0 349202.0 0
239816.0 349902.0 0
244604.0 351370.0 0
241366.0 353732.0 0
249252.0 350992.0 0
253002.0 350150.0 0
256616.0 352985.0 0
260111.0 350072.0 0
264562.0 349756.0 0
269082.0 350338.0 0
273099.0 353099.0 0
278163.0 349146.0 0
281268.0 351718.0 0
283998.0 352488.0 0
287233.0 349191.0 0
287121.0 352988.0 0
291438.0 350796.0 0
296450.0 350669.0 0
203000.0 356274.0 0
207987.0 355710.0 0
212581.0 355999.0 0
216469.0 356153.0 0
219193.0 353829.0 0
219775.0 357667.0 0
223504.0 354952.0 0
227676.0 356675.0 0
232224.0 356981.0 0
237421.0 354785.0 0
241317.0 356916.0 0
244202.0 356054.0 0
247812.0 355232.0 0
246543.0 358584.0 0
251871.0 354841.0 0
259313.0 357142.0 0
261748.0 353681.0 0
263810.0 358289.0 0
265701.0 353923.0 0
267949.0 358610.0 0
269013.0 355242.0 0
272017.0 357892.0 0
277320.0 353421.0 0
275780.0 357328.0 0
280779.0 356178.0 0
285721.0 357096.0 0
290605.0 354166.0 0
293903.0 355553.0 0
297469.0 355471.0 0
202584.0 361003.0 0
206289.0 359989.0 0
210644.0 360118.0 0
215624.0 360271.0 0
223350.0 359409.0 0
220118.0 361993.0 0
223947.0 363695.0 0
227014.0 361022.0 0
231322.0 361874.0 0
234861.0 364301.0 0
235790.0 360016.0 0
239862.0 359770.0 0
238248.0 363701.0 0
243466.0 359564.0 0
242110.0 363275.0 0
249927.0 359191.0 0
246579.0 362783.0 0
254857.0 359301.0 0
259596.0 361287.0 0
262738.0 362777.0 0
266281.0 362115.0 0
270091.0 361529.0 0
274398.0 361505.0 0
277792.0 359570.0 0
278035.0 363138.0 0
281500.0 360701.0 0
290531.0 359062.0 0
285720.0 362651.0 0
290929.0 363070.0 0
296259.0 360316.0 0
197272.0 368653.0 0
202749.0 364980.0 0
207479.0 364033.0 0
209842.0 366941.0 0
211955.0 364274.0 0
213271.0 367915.0 0
216232.0 365064.0 0
220652.0 366388.0 0
224510.0 368086.0 0
227967.0 365438.0 0
232394.0 367546.0 0
236805.0 367450.0 0
240203.0 367062.0 0
244318.0 366983.0 0
247784.0 367523.0 0
251371.0 364295.0 0
254227.0 368091.0 0
256418.0 364560.0 0
257472.0 368884.0 0
260302.0 365939.0 0
264551.0 366384.0 0
268076.0 364889.0 0
268567.0 368926.0 0
271513.0 365100.0 0
272256.0 368595.0 0
274945.0 365905.0 0
278717.0 366948.0 0
281450.0 364319.0 0
282843.0 367383.0 0
287492.0 366328.0 0
292147.0 366269.0 0
297044.0 364562.0 0
296710.0 368597.0 0
198960.0 378175.0 0
201968.0 371167.0 0
200589.0 374941.0 0
204621.0 371445.0 0
201518.0 368415.0 0
204332.0 374396.0 0
207159.0 371895.0 0
205787.0 368221.0 0
210179.0 370433.0 0
214263.0 371672.0 0
217213.0 369166.0 0
218049.0 373175.0 0
221197.0 370684.0 0
224752.0 372176.0 0
228497.0 370213.0 0
228562.0 374449.0 0
232042.0 372498.0 0
235529.0 371120.0 0
239051.0 370510.0 0
238019.0 374357.0 0
242343.0 369984.0 0
241750.0 373137.0 0
245793.0 371164.0 0
248514.0 373958.0 0
250703.0 370152.0 0
254952.0 371559.0 0
258451.0 372445.0 0
260946.0 369890.0 0
262229.0 374298.0 0
264311.0 370671.0 0
266737.0 373559.0 0
271312.0 372561.0 0
274924.0 369772.0 0
275040.0 373832.0 0
278663.0 370674.0 0
282108.0 371906.0 0
285026.0 369742.0 0
288390.0 369779.0 0
285187.0 373747.0 0
292393.0 370437.0 0
289561.0 373499.0 0
296926.0 372736.0 0
293339.0 373011.0 0
295389.0 376647.0 0
298943.0 376598.0 0
301537.0 377826.0 0
191708.0 382493.0 0
196859.0 379591.0 0
201247.0 379800.0 0
194741.0 381908.0 0
203216.0 377641.0 0
199751.0 381960.0 0
202089.0 383545.0 0
204019.0 381198.0 0
206476.0 378137.0 0
208493.0 374998.0 0
212066.0 374644.0 0
209936.0 378824.0 0
212242.0 377960.0 0
215321.0 375965.0 0
218568.0 377188.0 0
221728.0 378778.0 0
221723.0 374691.0 0
225481.0 376617.0 0
228939.0 379023.0 0
231154.0 376508.0 0
234493.0 375746.0 0
236858.0 379465.0 0
240431.0 377347.0 0
244536.0 375680.0 0
245961.0 379993.0 0
247346.0 377663.0 0
248781.0 381082.0 0
252372.0 374189.0 0
250566.0 377542.0 0
253376.0 377515.0 0
255679.0 375138.0 0
258896.0 375906.0 0
260964.0 379213.0 0
265226.0 378142.0 0
269241.0 376043.0 0
272540.0 377640.0 0
276678.0 377751.0 0
279017.0 374723.0 0
281981.0 377353.0 0
285518.0 378350.0 0
289623.0 378386.0 0
287380.0 376506.0 0
287860.0 380956.0 0
292141.0 375845.0 0
292383.0 380373.0 0
295396.0 380337.0 0
299023.0 379536.0 0
298718.0 382981.0 0
303265.0 380026.0 0
305979.0 381041.0 0
302016.0 382208.0 0
304928.0 384044.0 0
307959.0 383459.0 0
181293.0 389457.0 0
186664.0 385940.0 0
183701.0 387585.0 0
186456.0 389294.0 0
189583.0 384853.0 0
192891.0 386148.0 0
197623.0 384201.0 0
195456.0 387386.0 0
200669.0 386503.0 0
204018.0 387319.0 0
204819.0 384125.0 0
207378.0 381618.0 0
208233.0 386057.0 0
211270.0 382695.0 0
215029.0 380288.0 0
214217.0 385544.0 0
217727.0 383782.0 0
218703.0 380399.0 0
220950.0 382271.0 0
225196.0 380908.0 0
223642.0 384550.0 0
228342.0 381959.0 0
230855.0 382487.0 0
232648.0 379790.0 0
232017.0 385798.0 0
234847.0 383254.0 0
239758.0 381287.0 0
238439.0 384470.0 0
241832.0 383469.0 0
243026.0 380005.0 0
[...]
POINT_DATA 5000
SCALARS Radius float 1
LOOKUP_TABLE default
5415.48 5120.0 6182.6 2356.98 5258.36 3163.97 5580.89 6810.52 5840.26 5073.35 4834.9 3863.18 5085.53 4998.37 5492.18 5061.3 3951.75 3642.12 4499.64 5812.43 5906.14 7513.1 5254.28 4436.4 5733.48 3588.44 5645.7 5553.16 6110.27 5561.06 5670.04 6044.04 5484.83 5351.6 4715.55 5867.73 5013.56 4375.68 5542.27 5484.19 5122.66 3557.27 4688.68 4402.52 4182.53 4517.56 4672.91 5176.86 4366.19 3672.51 2938.66 4008.92 3615.22 4380.59 6716.79 3850.77 5325.36 5538.89 4730.36 6059.59 5701.86 2720.68 4238.81 5054.98 4468.59 6030.06 5170.02 4927.31 5185.34 4432.58 5903.42 3761.32 3955.56 5292.64 4118.05 5065.13 4940.78 5936.02 5305.17 7613.27 5546.39 6759.9 7021.47 5926.61 4955.55 3563.63 4345.55 5885.03 5325.02 5200.76 4862.64 5017.13 5205.43 3673.74 6684.56 3968.64 2635.86 4385.06 6166.5 4290.3 4861.08 4231.61 3942.53 3379.84 3607.45 4951.03 4133.88 4094.62 5945.65 5418.62 5493.32 5416.38 6051.14 4195.44 5836.15 3261.21 6704.06 2837.58 3653.41 3871.88 5246.2 4390.66 4827.23 6116.18 7447.37 4688.67 7184.19 3867.67 4003.05 4827.82 3589.27 4333.2 4665.12 6483.19 6230.49 4601.27 3641.64 5740.68 4277.89 5539.32 6496.85 5600.93 3856.01 5541.59 4124.71 5279.39 4911.47 5803.39 4381.97 4924.6 4733.32 3255.82 2924.37 2899.43 2812.98 4065.69 5399.73 4805.87 5759.91 3260.67 3936.02 3383.4 4927.02 3856.1 5980.74 4174.52 5109.54 7054.71 5489.43 5747.75 4796.33 5360.19 4874.39 4839.34 5083.08 5728.85 6337.56 5863.59 3998.5 6257.19 5242.73 5603.15 5390.22 4712.33 6038.78 5227.21 3997.1 5123.52 3038.33 4295.38 4780.03 4044.71 3829.13 5816.2 3091.3 6458.82 5527.54 5054.25 5573.7 7325.81 4794.96 6186.19 2980.99 4840.01 6834.49 5525.39 5938.34 4024.3 5555.28 4737.14 5169.36 4695.45 4686.65 4660.72 5556.96 3888.21 5697.78 4667.36 4392.68 5495.39 4487.31 5693.81 5789.98 2540.31 6138.47 4727.62 5697.4 5206.78 4055.8 6425.26 5143.58 4484.76 5611.2 7933.0 5173.87 6394.38 5118.27 5932.23 5834.74 6052.7 3921.18 6902.81 5529.52 3554.9 5252.48 3996.0 4002.16 4015.92 4778.34 4138.16 4684.5 6029.66 6302.8 4270.95 4005.44 5555.88 5280.17 5028.96 6362.12 3866.16 5152.36 4220.65 6820.42 4455.12 5380.13 5711.87 5791.61 5788.23 3798.62 3666.57 5891.05 4254.17 4091.31 7199.21 6124.89 5708.81 5043.05 3486.22 5120.49 4414.54 5409.61 6038.2 5713.22 6732.43 3183.98 4524.28 4511.82 3778.1 5826.64 4816.2 4894.16 6321.41 4896.52 3372.79 4941.22 5282.64 5581.75 4479.66 6392.01 6644.76 5615.42 4523.7 5255.32 5337.48 5542.21 5924.89 6894.71 5262.61 5201.36 4306.53 5094.81 5972.06 4312.67 5861.71 5017.78 4359.04 3794.63 5015.69 4727.24 6175.81 6959.81 4829.35 4089.76 4751.02 5184.56 4715.72 3369.13 5367.2 5308.1 6372.62 6730.19 4937.02 7565.34 4929.8 5637.59 5481.78 3307.12 4937.14 4467.94 5551.36 6038.14 5024.9 6135.57 5998.38 4270.24 4989.15 4947.52 4520.1 6677.09 4305.57 5813.4 3791.79 5201.67 5526.55 3192.41 6084.93 4987.87 3315.57 4669.66 4808.52 3043.85 5461.13 4907.89 5629.19 6037.08 6756.95 4382.74 4049.23 5601.05 3586.91 3103.0 4948.92 3115.91 6084.86 5478.92 4933.21 4850.81 5375.47 4723.12 4717.05 5659.17 5287.2 4562.29 5423.8 3417.33 5080.66 4164.13 4926.42 4642.34 5153.74 5874.89 4293.03 4424.7 4754.05 4925.44 4951.47 5246.61 5215.15 4764.96 5046.33 5607.24 4726.76 3599.45 5655.21 5839.13 5091.39 5090.24 6324.23 2240.39 5096.78 4727.24 3320.52 4151.94 4651.28 4384.42 6355.42 4516.43 4362.19 3693.63 4493.48 4749.8 5810.84 5094.44 4230.54 3748.24 4655.49 4566.18 4964.09 4809.42 5856.11 4109.88 4234.94 5013.13 5714.58 5110.45 5248.77 3296.27 4083.97 4607.02 4165.81 4528.09 3556.85 4389.21 4128.98 5882.89 6246.22 4307.28 5804.71 5020.12 5053.92 6352.26 3735.44 4786.6 4073.93 4907.06 5923.5 4645.41 5740.84 4612.68 5530.87 5293.9 4129.43 4973.83 3912.37 6142.94 4931.38 4685.34 4329.05 6082.81 5927.43 5492.26 5690.56 5244.78 5762.84 5478.47 3937.74 5082.6 6142.37 6061.47 6163.38 5806.08 4997.27 3459.9 4093.08 5543.27 5628.24 3327.49 3960.8 4980.85 5070.39 4923.9 3329.99 4973.78 3947.47 5208.32 4713.25 6243.0 3895.51 6673.96 6291.51 5174.89 5370.52 4188.32 4100.38 5774.81 4739.42 5538.93 5727.3 4242.52 3057.03 3847.38 5356.51 5163.9 5495.68 4433.59 6043.3 6445.94 4310.18 4320.28 6342.25 4281.49 4218.06 3843.58 6691.39 4602.25 4792.73 5513.6 4736.58 3485.26 4556.36 5110.37 3191.99 5664.98 4659.59 6327.9 4048.37 4220.88 6640.13 6519.71 3092.35 5210.03 5351.39 6022.17 5119.37 3982.23 4336.42 5243.29 4853.39 4449.22 3130.65 5365.89 5992.26 4511.54 5196.0 4613.31 6119.09 5091.68 4204.84 5069.25 5048.89 3991.03 5441.96 3161.47 3435.9 4288.3 4652.29 4495.87 3697.96 5344.77 4723.48 4899.11 4745.45 4278.07 5281.28 2631.9 3818.59 4087.15 4863.72 5489.34 5708.14 5952.75 4262.82 5537.72 3920.42 6332.36 5542.14 4931.53 7134.64 5480.13 4194.5 4270.53 4790.08 5191.63 5344.25 4501.51 5379.87 3708.04 4901.41 5138.31 5264.06 3240.09 3369.23 4551.24 5358.59 3688.8 4548.16 4515.71 5449.18 5367.52 4322.15 4714.54 3629.96 3320.11 5507.24 6851.54 4583.31 4503.89 4306.11 3402.32 7589.94 5004.67 4466.03 5409.33 4898.94 5985.29 4178.15 4733.04 5788.66 7531.29 4755.47 5935.03 6390.78 7435.25 6826.57 4788.87 3746.31 5498.32 5027.98 5097.87 5346.27 6475.1 7267.18 6255.18 4143.08 4758.21 5002.48 7500.97 6623.85 5102.36 6122.55 8332.24 2739.94 5978.9 4187.56 5082.47 4840.84 4997.27 5344.0 5135.69 4593.7 6045.46 5681.38 4043.57 4478.15 4138.42 5925.6 5987.17 3979.82 6013.14 4602.86 2765.2 4621.75 4581.13 4219.07 3610.4 6387.01 6202.55 5025.39 5030.91 5893.5 4547.19 4377.07 5101.59 3813.22 5570.3 5935.47 5903.66 5313.66 4528.49 5512.23 5419.37 5275.32 4247.23 4649.22 4268.65 4694.83 5509.42 4354.08 5936.36 4520.62 5229.48 3903.75 5475.7 4485.99 5475.8 5314.69 6050.81 5543.46 4249.46 6022.72 4643.31 5527.33 6917.52 4969.21 2691.29 6256.02 4277.88 4668.71 7228.46 6362.14 3948.23 5228.18 5787.31 4342.9 5065.11 6155.31 4223.33 4553.56 6308.71 3629.62 5911.67 4716.19 5514.76 4301.06 3456.98 6405.76 4290.14 3815.26 4763.45 4150.99 5445.87 4216.92 4107.03 4271.69 3771.48 5198.77 5643.58 5147.67 4292.06 5006.58 5011.31 4481.53 5586.81 3948.17 3856.59 5413.79 4746.52 5572.95 6338.89 5584.06 7111.16 3817.13 6480.17 5023.15 3844.9 4564.34 3695.36 3963.86 3848.93 5076.35 6020.48 5200.05 4091.8 5234.29 4645.58 2651.49 5670.2 4711.62 4114.24 5349.31 2976.22 5394.55 5094.52 4256.43 2682.24 5928.32 5415.19 4016.18 5127.16 5526.75 5435.74 4244.99 5327.45 5560.26 5965.81 3702.37 2330.66 4177.19 3691.0 5402.21 4880.14 2845.98 4982.31 5320.92 5269.18 4406.1 6719.88 5034.59 4942.77 5978.82 3927.99 5069.84 4051.44 5329.64 3323.28 4050.9 6695.82 5835.78 3498.2 4877.67 4020.32 4704.72 4245.72 5908.1 4571.7 4177.94 4344.58 4742.68 5634.83 4502.5 5922.5 3929.19 5347.48 3633.87 3970.25 2775.04 4138.46 4850.01 5215.05 5577.04 4986.77 6318.18 5423.0 5077.33 5330.45 3689.45 3824.16 3868.18 6723.16 3686.21 5372.61 5402.24 4519.22 6445.22 3838.56 4871.44 6248.81 6375.99 5273.35 4853.02 6259.23 5181.4 3457.48 4662.56 5166.79 5417.15 3405.98 3688.16 4681.72 4946.74 5996.33 3950.63 4612.62 3619.07 4467.04 4275.57 6385.23 2614.4 2983.99 6185.89 3997.96 4750.17 4439.35 5660.85 3460.94 3990.25 6184.4 3758.07 4752.51 4373.45 3587.05 6229.37 4989.09 6718.19 5289.52 4307.48 5314.85 3848.54 4305.43 5450.44 6510.17 5080.18 4263.33 5868.82 5266.5 4454.63 4523.88 6049.55 4066.38 3279.1 5709.62 4241.89 5054.74 5941.72 4981.9 5794.24 6562.18 3066.13 4127.74 4541.21 4156.38 4302.5 6048.7 6009.88 5896.46 4164.68 5495.84 6268.1 3784.5 4862.21 5782.6 5113.21 5499.11 4011.77 4527.08 4374.35 6396.74 4810.12 6898.19 3821.72 6035.6 5526.14 5137.34 5198.29 4044.45 3975.31 5344.43 5125.78 4373.47 5045.38 5350.88 5130.91 4959.34 4948.5 5383.07 4527.02 4531.14 4247.15 5013.42 4602.85 5651.07 4962.77 5872.05 6101.92 5323.3 5088.44 4635.6 4998.21 6079.11 4256.67 3931.07 6430.39 7440.72 3949.6 4945.39 6326.18 5661.62 4867.08 6631.19 6648.68 5626.61 5817.25 5061.98 6363.92 6205.93 5830.72 3828.81 5309.98 4236.14 4407.87 5282.91 5941.4 4425.84 5331.02 4871.96 5742.65 5592.32 5912.61 4978.31 4099.77 4537.32 4414.48 5163.02 4656.78 2476.04 5105.16 5991.09 6006.16 4678.38 5316.75 5448.61 5050.65 5022.8 4827.33 7055.53 6133.92 5013.67 3719.84 4178.4 5669.65 5253.55 5820.48 7034.11 6261.42 2586.12 6125.34 5965.78 5252.34 2965.79 7099.43 6449.45 5315.4 3627.82 5262.19 6070.58 4244.9 4285.32 5490.43 6034.41 5452.83 5022.28 5197.52 5178.99 4790.78 4591.87 6422.84 6552.22 5379.09 5210.48 7552.94 4051.34 3627.55 6239.84 5865.39 4427.28 3082.32 5949.46 3658.37 4765.02 3178.54 5376.71 4448.13 5703.6 5070.29 4807.28 4266.03 5075.55 5280.69 4220.03 4713.74 5407.78 4084.49 6179.96 6632.99 4537.6 4923.24 5147.36 4419.61 7177.44 4563.46 4082.57 6553.94 5733.62 5255.18 5169.9 5282.51 3004.16 3797.33 7256.35 4105.55 4800.69 4863.23 4402.67 3555.86 5381.16 4403.98 4948.98 5565.13 4560.84 5227.52 6086.96 4092.24 4729.43 5233.78 4562.74 5776.57 5126.91 3942.07 5133.97 7443.72 3937.08 5371.02 5513.57 5260.34 5729.23 5206.48 5934.22 3780.23 6586.45 5826.04 3471.03 4359.62 5188.81 3745.84 5011.84 6057.22 6946.21 5062.71 5433.8 4497.59 5975.63 4410.55 4274.61 4287.63 5776.37 4516.28 5678.96 4190.31 5486.68 6048.86 5100.25 6894.26 4986.51 5339.38 6169.11 5615.35 5172.53 4027.09 4135.62 4502.18 5801.99 5534.94 7644.38 6004.68 6799.4 4409.63 5521.25 3661.9 5107.23 5370.85 5136.08 5558.68 3776.94 4010.57 5629.39 2684.03 6157.04 4768.61 2261.36 4522.21 5506.19 6719.94 6923.84 5227.59 5449.46 6166.29 5703.07 6113.54 4662.43 6260.79 4043.66 3963.76 5528.53 5726.66 5460.65 4460.92 4767.78 5945.89 4042.28 6566.1 4340.76 4435.36 6065.22 6386.78 4221.28 4996.99 4470.61 4631.83 6193.35 6887.27 3701.27 6008.49 4806.34 5653.9 7144.24 5598.74 3600.43 4906.82 6600.94 5131.24 6155.1 4788.58 4709.35 5876.71 5624.49 5226.0 5339.78 3095.48 4166.08 5762.59 4861.06 4298.67 5960.66 3979.26 6608.73 3999.48 4730.41 4203.26 3923.03 5696.88 4004.04 5690.26 4156.2 5607.14 6915.83 4289.17 6072.45 5564.02 4470.98 6444.77 6314.07 5083.41 3921.08 7055.42 5683.61 5805.86 4049.02 4470.4 5311.03 4611.53 5255.12 4285.66 3872.61 4896.11 4238.4 4318.48 6132.95 5266.22 4860.33 5226.97 3685.13 5754.18 3312.06 5180.76 5132.68 3361.26 3418.99 4480.95 4993.35 5278.36 6218.95 5222.16 5533.72 5533.42 4802.32 4599.38 5246.47 4187.31 6191.29 7422.36 5161.01 4298.15 4950.67 4628.4 5832.37 5453.6 6051.83 5409.63 5294.77 3077.84 4709.05 4630.82 4813.08 6799.88 4540.86 3062.43 5426.78 5235.17 5652.0 4779.5 5463.41 4421.12 5225.33 4929.75 5254.49 6649.96 4456.39 4896.39 4384.88 3633.79 6081.14 5480.83 4220.46 4287.53 5683.26 5612.21 5046.21 5894.61 5687.83 5196.67 5004.23 6496.67 6442.69 5474.8 4373.3 6320.71 4648.04 4750.78 6262.72 5029.78 3365.82 3664.11 6481.79 5374.51 5320.28 5224.12 3637.61 4569.12 4796.58 4472.17 5873.69 4962.09 5654.31 4643.85 6062.05 5082.74 5411.85 4844.57 4027.46 5092.37 3901.8 5511.88 5759.46 4512.11 6248.6 5443.58 3836.45 5687.85 5346.68 4558.46 5296.29 5020.71 5997.88 5094.48 2681.29 5839.71 5576.92 6408.83 3930.79 5365.24 4004.35 4763.96 5008.63 4270.74 6293.89 6595.03 4983.39 5366.52 4690.55 5146.37 7132.12 3678.08 4836.16 5518.57 5151.11 5463.48 3240.51 5730.33 4527.99 5545.46 4376.7 5190.61 3764.06 4642.93 3973.12 4263.16 6024.75 6109.49 5860.67 5567.93 5987.42 2967.38 5990.52 3764.1 4835.83 4159.35 6477.91 3091.67 4237.98 6439.37 6045.22 4081.97 4614.3 4303.19 5134.39 5514.84 4256.57 3914.2 5421.53 4607.85 5937.08 6070.3 5128.57 4929.14 6000.7 5945.08 3979.54 5139.5 7493.3 4814.55 5833.06 3527.05 6607.87 4163.5 6515.84 4143.78 4123.6 7092.87 4970.88 4850.14 6739.08 5463.38 4471.58 6098.14 5945.21 5750.71 3493.7 6222.42 4938.74 4200.03 3474.39 5470.77 4831.47 6939.12 4406.4 4735.33 3999.94 4413.85 6171.13 6853.85 2395.5 4864.22 4020.4 3497.9 5941.61 5782.48 4031.78 4933.65 6098.1 5708.99 2435.33 6333.29 6401.43 4558.47 5731.57 5662.55 5737.92 4360.23 3755.95 6234.32 4585.31 4586.19 5293.51 4446.06 3450.93 5323.91 5097.45 4185.61 5737.75 4558.15 2761.07 3778.02 6552.21 5417.8 4350.12 5227.02 5670.0 4232.16 5300.96 4344.51 5680.94 3781.77 5581.55 4543.1 5193.01 6550.44 3474.5 8325.01 3860.83 5732.27 4440.81 4523.39 5941.9 5434.47 6642.76 5829.22 4497.78 4243.79 5811.18 5332.65 6451.33 5604.35 5413.31 6316.56 4332.87 6420.81 4715.58 5401.99 3317.83 5580.92 5784.3 3532.3 6088.68 5769.98 3583.21 2221.99 5442.32 4643.56 4135.08 4863.01 5620.74 5233.29 5604.21 4968.03 3169.67 5204.04 5304.13 3306.14 5944.09 5698.77 3464.83 4863.79 4702.06 2477.07 5117.47 4538.95 5724.64 2990.77 5965.15 4925.63 4763.66 4888.6 4666.81 7042.12 4780.2 4797.52 6326.39 6643.85 6343.14 5501.93 4020.95 5462.21 6313.06 5374.98 6470.3 6345.13 4719.7 5516.95 5313.22 5563.79 5328.22 4151.76 4216.17 3905.51 3493.47 4721.02 4254.37 4596.75 3374.08 5564.23 5950.04 4231.83 4074.48 3614.96 4477.04 3886.68 5703.74 4747.55 5464.68 3056.7 2685.81 5591.76 4510.8 5889.35 5010.04 4394.56 6625.18 4570.98 4275.07 5825.38 4573.72 4047.87 5099.21 5742.47 4917.99 5636.4 4367.78 4095.75 3603.51 4298.45 5222.51 6609.84 5135.96 3834.43 5658.37 4707.06 6074.94 5491.37 4250.88 6348.03 3475.67 4792.39 5278.56 5146.37 6917.62 4013.38 5631.14 6137.8 4343.78 5433.65 5263.3 4442.22 4008.15 4887.76 4669.06 3012.99 4811.32 6400.08 4743.59 5208.14 4450.7 5151.52 3763.05 5092.24 5973.33 4347.74 5291.9 5067.46 4009.62 3580.58 2081.58 5356.79 4011.37 4312.56 4778.82 4612.06 6124.08 3361.92 5467.84 4750.58 5490.58 5395.14 6710.88 3967.48 4923.41 6213.04 4497.31 3163.78 4721.32 4305.16 3293.56 5882.65 5092.28 5078.86 4918.77 5163.55 4819.73 3382.7 6817.32 6471.55 5085.71 4319.79 5960.56 5122.63 5774.97 5862.86 6049.79 4703.08 4390.41 5226.56 5274.19 4050.08 5599.49 4097.57 5452.42 5017.5 3436.15 5005.85 5711.11 4575.94 6484.17 5021.88 3546.71 4938.72 5956.65 5768.57 4498.25 4188.87 5151.21 3735.24 5398.64 3573.73 6574.95 6817.57 4693.52 6853.04 4568.41 3624.7 4745.43 3420.08 5831.96 4912.04 4539.07 4475.83 5480.3 7509.24 5896.26 5388.78 6101.13 5599.7 4163.74 6969.28 3665.95 4296.69 5698.96 3319.67 6471.42 5283.8 4076.59 4428.14 5164.1 6464.15 4972.17 4479.11 6685.4 5699.53 4222.77 3783.54 5268.38 5527.23 7038.89 3863.67 4814.12 6193.08 5067.56 6069.3 3352.35 2735.53 5116.6 4909.65 6523.86 7693.4 4286.49 4437.07 6184.88 5829.32 4396.25 5551.95 5369.08 3918.87 5549.49 4518.04 3101.75 5423.42 4766.06 4874.18 2511.46 6505.78 5657.36 2775.69 6519.43 3619.79 5029.47 5053.95 6667.68 5926.11 5211.38 5235.11 3830.46 6031.67 6413.11 5529.42 5274.14 5257.12 4739.14 4434.19 4636.5 4903.82 5100.1 4940.42 3954.91 4371.99 3703.1 4946.42 5923.4 3561.29 4623.61 4082.47 3295.83 6413.02 2965.01 6263.44 6235.57 4863.27 4584.5 3492.19 6766.43 4118.84 3623.87 2315.64 5916.16 6934.37 4890.5 6113.95 3731.84 4488.85 4901.07 3981.07 3554.48 5186.3 5966.61 4893.49 5325.44 5102.75 3672.21 5760.22 4597.29 5938.17 4200.09 5931.77 5108.06 4914.45 4222.4 4000.43 4661.03 5160.59 5262.35 4691.91 4320.42 4255.34 5344.83 5064.79 7046.11 3427.63 4863.97 4146.81 6342.48 5756.75 5093.82 4587.67 5951.81 3924.14 6918.35 6238.32 6804.79 6372.13 5369.5 5404.01 6016.19 4124.49 5535.91 3230.13 5714.25 6176.67 5325.96 4850.06 6332.01 5412.24 7044.29 4805.33 4234.18 7085.01 5980.95 6153.94 6836.82 3862.77 5887.01 4631.99 5168.35 2783.85 3747.03 5388.39 4356.49 5335.47 4326.48 4526.81 3449.37 3994.07 4219.94 5491.9 5907.46 6405.0 4264.91 4659.16 5789.55 4633.05 2275.45 6605.86 4901.2 5012.5 4785.25 5435.19 5461.55 4270.15 5876.64 3298.2 6306.21 5253.37 5424.46 5266.01 5767.9 6515.8 5384.76 7016.27 6622.11 6138.12 4428.78 4689.15 6790.73 5746.28 4965.89 5187.7 5659.95 6090.91 5409.66 4152.85 4537.14 4219.78 5551.9 4188.3 4963.34 5081.78 4260.92 5499.39 5644.82 4440.57 4407.9 5203.08 6736.03 5412.31 3087.09 5548.29 7480.41 5163.77 6027.62 3766.55 3423.15 4579.69 5010.2 6123.03 6496.52 3991.42 4997.83 3718.69 4388.63 4834.87 4514.79 2216.82 4509.89 6752.75 5269.38 4795.43 5607.3 5097.95 2928.82 4698.87 5313.12 5351.56 3984.88 3344.57 5318.53 5220.76 4281.98 4732.09 6945.98 7165.9 5783.48 4701.5 4449.98 4771.65 5589.37 4840.44 5439.49 6639.64 5212.43 3687.65 5454.12 4834.3 6348.54 4066.57 5642.35 5156.76 6357.47 6101.57 4891.38 4793.65 5955.86 4532.89 2949.12 4533.37 4848.46 2779.99 5016.02 4581.37 4920.21 4049.16 5851.61 3936.95 5478.11 5526.31 5030.15 3858.17 3477.1 4740.98 3185.39 5128.77 3728.18 7122.87 5633.61 5048.19 4243.26 6799.23 4888.27 6740.71 5399.29 6487.56 4854.11 5971.22 4909.31 5417.21 6522.59 5711.62 4383.56 3562.79 4990.79 7093.13 4953.1 6865.76 6449.64 2978.76 3940.49 4857.84 2040.66 4908.49 4962.21 5089.62 5884.9 3685.13 3685.65 5243.43 4590.55 4655.16 4741.26 5920.32 4916.22 3701.16 4186.6 5251.4 3867.19 4453.64 4345.67 5019.93 5511.6 3885.86 4459.28 5235.29 4517.73 5177.64 4541.8 4255.31 6116.33 4479.94 5453.3 3838.47 6250.23 2588.37 5887.15 4718.54 4435.51 8659.64 5374.07 4055.54 4588.7 6419.12 5683.95 5469.13 5765.42 4233.8 6098.95 4976.12 4817.16 5453.98 5148.08 6192.0 4940.28 7610.49 5885.28 6579.31 3004.34 5323.55 3022.6 5375.1 4811.76 4172.6 5498.42 4196.37 6448.66 3556.79 4453.97 5138.2 6412.67 7001.83 4504.35 4593.7 5012.97 4036.91 5110.11 6379.14 5216.26 4887.52 5478.95 3851.85 6318.23 4058.87 4206.98 5174.75 5932.07 4984.46 5948.71 3856.53 5460.89 6040.74 5260.85 5742.09 2884.65 5887.38 5807.46 6942.34 4393.16 3658.05 4549.69 3311.29 6423.81 6192.77 3644.78 4312.15 4078.93 5934.82 4501.78 3572.94 5797.36 5001.58 4153.84 5119.86 4592.15 5084.17 4901.44 3776.8 4998.22 5096.43 5533.19 6156.21 6602.43 4798.17 3568.28 5425.98 5166.79 4516.53 2895.63 5818.95 4093.99 4122.92 4997.91 6464.8 5079.22 3604.14 4684.44 4452.54 4406.05 4749.59 3468.42 4858.44 4673.35 5799.69 3876.21 5571.72 5869.4 5689.26 4992.42 5297.19 6022.7 4255.85 4940.84 5097.69 5895.77 6261.75 4765.72 3757.34 5857.79 2908.7 6415.61 4039.91 4338.08 4752.14 5037.06 5660.16 5842.56 6134.99 5191.08 5424.88 4062.5 5415.85 4199.45 7234.66 4207.54 4886.12 6599.66 4936.96 4301.61 6107.89 3184.64 5206.33 4446.84 5530.49 4304.41 5660.55 5653.03 3989.7 5578.94 4157.29 4777.03 4246.61 4286.17 3684.56 6028.09 3804.5 5452.36 6486.37 4638.18 6083.28 5211.6 5806.31 4745.79 5456.71 3503.41 4908.75 7317.04 3971.08 6204.65 4482.9 6550.4 4349.13 3766.69 4891.67 6818.91 3503.65 3634.5 4027.63 6631.28 6571.31 5420.67 4392.65 6413.15 6103.11 5048.55 6459.51 4024.31 4955.16 5844.72 3992.97 5989.05 4054.22 7228.94 5393.65 4441.22 4961.99 4648.21 4595.12 3110.13 6484.43 4625.67 3485.54 4458.64 4583.52 6418.11 3492.83 6015.02 4922.49 5244.22 5585.14 7039.98 4820.17 6456.58 4729.42 4159.81 5089.26 3886.72 5415.45 6592.93 6350.71 6436.74 6104.26 2460.79 5583.61 6063.64 5996.66 4986.71 6479.39 4405.42 3598.08 4599.81 5381.54 4680.94 5810.77 5828.35 5089.1 2711.19 4028.32 5876.72 5236.43 4771.13 3809.69 4099.92 3208.96 7051.9 5285.07 4608.41 4680.14 4732.09 4184.23 3988.3 4833.46 6136.49 5750.07 4642.66 6543.13 5276.7 5149.72 4378.3 4687.64 4419.71 4888.12 4244.21 4950.97 5411.02 3197.63 5175.29 4989.56 4863.96 4094.73 5199.44 6200.54 5148.58 4652.01 3548.39 5421.64 3583.49 3673.28 4858.51 5052.84 3375.28 4366.74 5625.65 4603.5 4481.76 4647.67 4214.44 5375.12 5452.78 5065.26 4356.36 4892.44 6789.23 4741.28 4215.2 5069.89 2205.51 5107.0 6212.15 6813.72 5327.75 4946.23 4609.02 4896.65 5561.74 5975.23 6100.73 4198.94 5470.04 4211.82 6556.26 2628.22 5684.25 5438.92 4244.49 5036.98 5513.8 5188.53 4521.75 3429.57 5569.2 5350.88 5410.33 4642.74 6735.97 5305.59 5416.45 4330.58 5754.6 3288.01 4904.51 4147.31 2202.77 5751.15 5950.88 4149.55 6201.86 5853.89 6551.93 3380.69 4140.4 4386.8 3639.44 5446.4 4725.01 5966.75 5510.9 3657.69 4505.28 4883.63 4971.29 6280.13 3684.15 5832.29 4438.76 3994.39 6006.89 4618.73 3814.65 3965.3 5244.98 4960.64 5792.98 4385.81 4034.05 5690.96 5798.38 4456.11 3862.91 4653.83 4125.9 5096.24 6171.71 7382.3 3628.89 2995.67 4668.88 4022.56 5522.21 5027.43 5698.23 3772.3 4855.01 7300.58 4714.83 3608.06 5474.15 7519.2 6633.61 4884.59 6355.68 3858.06 4478.6 4083.79 4144.57 4511.7 4304.63 4351.38 4187.94 5933.7 5550.75 4809.67 5021.77 4757.74 5036.58 5469.47 5776.96 5329.59 4209.49 6119.63 5464.25 3498.16 5439.9 4752.9 5512.16 4617.55 4287.16 3645.12 3456.47 3875.05 5471.74 4344.34 5713.03 5849.65 49