# vtk DataFile Version 2.0
Time step 13
ASCII
DATASET UNSTRUCTURED_GRID
POINTS 5000 float
75939.2 455641.0 0
79980.2 452796.0 0
83980.5 454623.0 0
87978.6 452538.0 0
91019.4 455028.0 0
94726.1 454885.0 0
171820.0 455049.0 0
177735.0 455112.0 0
182939.0 454297.0 0
278878.0 455238.0 0
297322.0 455212.0 0
361298.0 455382.0 0
371599.0 453245.0 0
376549.0 455291.0 0
393040.0 454165.0 0
401299.0 452704.0 0
406078.0 451045.0 0
407965.0 453905.0 0
411335.0 454044.0 0
414948.0 454217.0 0
418082.0 451797.0 0
418826.0 456654.0 0
422203.0 454041.0 0
64534.0 462031.0 0
68259.4 459914.0 0
71698.2 457566.0 0
76660.2 460322.0 0
80375.5 457099.0 0
83222.8 460755.0 0
87091.0 457753.0 0
91945.9 459525.0 0
98647.2 455832.0 0
102539.0 456055.0 0
98103.1 460134.0 0
107052.0 455741.0 0
112630.0 456235.0 0
109125.0 460430.0 0
118379.0 456989.0 0
123775.0 457025.0 0
128716.0 456613.0 0
133806.0 456319.0 0
138479.0 457069.0 0
142500.0 456956.0 0
147500.0 456889.0 0
152501.0 456859.0 0
157612.0 456419.0 0
156867.0 460462.0 0
162601.0 456564.0 0
167011.0 456212.0 0
172992.0 460610.0 0
178395.0 460521.0 0
183550.0 459362.0 0
187395.0 456149.0 0
188620.0 460590.0 0
192500.0 457307.0 0
196097.0 456488.0 0
201748.0 455831.0 0
207653.0 456594.0 0
212990.0 455954.0 0
213696.0 460504.0 0
218130.0 457016.0 0
222482.0 457027.0 0
225808.0 456308.0 0
226821.0 460541.0 0
230431.0 456161.0 0
235810.0 457136.0 0
241170.0 455842.0 0
246500.0 457848.0 0
252673.0 455818.0 0
259041.0 456315.0 0
263768.0 457378.0 0
268740.0 456316.0 0
273935.0 456598.0 0
271642.0 460493.0 0
282031.0 458567.0 0
286327.0 456876.0 0
291718.0 457339.0 0
298228.0 460726.0 0
303657.0 456020.0 0
307711.0 458560.0 0
312102.0 456406.0 0
317901.0 457048.0 0
323215.0 456904.0 0
327546.0 457221.0 0
332167.0 456801.0 0
337177.0 456453.0 0
340898.0 457868.0 0
345670.0 455938.0 0
343347.0 460764.0 0
350311.0 458164.0 0
354845.0 457039.0 0
364799.0 460198.0 0
367459.0 456417.0 0
372384.0 459901.0 0
382042.0 456302.0 0
378230.0 459881.0 0
381818.0 460471.0 0
387444.0 455619.0 0
397736.0 456456.0 0
401345.0 459749.0 0
405194.0 456423.0 0
409398.0 457810.0 0
414074.0 458469.0 0
418134.0 460873.0 0
425506.0 455997.0 0
422982.0 459917.0 0
428538.0 457786.0 0
431640.0 459717.0 0
434924.0 462049.0 0
56703.4 467874.0 0
61008.3 464819.0 0
64924.9 465557.0 0
67613.3 463476.0 0
68702.8 466787.0 0
71714.1 462679.0 0
75427.4 464584.0 0
79714.0 463507.0 0
86823.1 463148.0 0
91868.2 464886.0 0
95259.2 462694.0 0
100454.0 463929.0 0
103954.0 460609.0 0
109610.0 465123.0 0
113021.0 462113.0 0
117500.0 462070.0 0
122500.0 461993.0 0
126423.0 465388.0 0
128002.0 460939.0 0
132677.0 461907.0 0
137690.0 461902.0 0
142904.0 461221.0 0
141123.0 465334.0 0
146952.0 461600.0 0
151964.0 461618.0 0
156348.0 465030.0 0
161305.0 461267.0 0
166527.0 460885.0 0
170058.0 465417.0 0
182228.0 464505.0 0
193585.0 461457.0 0
198266.0 460833.0 0
203936.0 461445.0 0
200009.0 465931.0 0
209370.0 461679.0 0
213305.0 465314.0 0
217615.0 462082.0 0
222048.0 461884.0 0
226881.0 465544.0 0
232226.0 461563.0 0
237708.0 462379.0 0
243305.0 462250.0 0
248444.0 461929.0 0
252661.0 462391.0 0
257248.0 460951.0 0
257711.0 465704.0 0
262324.0 461556.0 0
267105.0 461173.0 0
267461.0 465633.0 0
273018.0 465749.0 0
277019.0 460892.0 0
279875.0 464916.0 0
282820.0 462255.0 0
287500.0 461966.0 0
292884.0 461838.0 0
296727.0 465774.0 0
303095.0 461688.0 0
307445.0 461854.0 0
312501.0 462161.0 0
317499.0 461927.0 0
322422.0 461373.0 0
322448.0 465376.0 0
327500.0 461946.0 0
332500.0 462019.0 0
337656.0 461312.0 0
341219.0 464854.0 0
346626.0 465493.0 0
347750.0 461158.0 0
352485.0 461939.0 0
355698.0 465222.0 0
361184.0 460884.0 0
357507.0 461387.0 0
360883.0 465579.0 0
365992.0 464298.0 0
376827.0 465716.0 0
383341.0 464268.0 0
387383.0 460663.0 0
389847.0 464812.0 0
392475.0 460637.0 0
396810.0 461560.0 0
394298.0 466345.0 0
399776.0 465596.0 0
405939.0 463836.0 0
410986.0 461947.0 0
415077.0 464218.0 0
420458.0 465102.0 0
424621.0 463986.0 0
427621.0 461586.0 0
431231.0 463766.0 0
434706.0 465830.0 0
438743.0 464941.0 0
442939.0 467502.0 0
51844.9 471627.0 0
57718.5 472750.0 0
61210.6 469074.0 0
65155.8 469013.0 0
68636.3 471636.0 0
72786.6 468157.0 0
78092.8 467787.0 0
83432.6 466273.0 0
81535.2 470836.0 0
88226.0 467638.0 0
84816.8 470386.0 0
92627.5 470135.0 0
96667.9 466829.0 0
104710.0 466638.0 0
109102.0 470874.0 0
113707.0 466652.0 0
117640.0 466734.0 0
121652.0 466560.0 0
124591.0 470295.0 0
131409.0 467705.0 0
136652.0 467482.0 0
146406.0 466496.0 0
151922.0 468105.0 0
156907.0 470315.0 0
161812.0 466943.0 0
166592.0 468852.0 0
176346.0 466289.0 0
182262.0 469982.0 0
188090.0 466752.0 0
194300.0 466479.0 0
204286.0 466933.0 0
208107.0 466573.0 0
217709.0 467020.0 0
214373.0 470981.0 0
222571.0 466159.0 0
222088.0 470423.0 0
232456.0 467028.0 0
237448.0 466805.0 0
237808.0 470140.0 0
241808.0 467455.0 0
246870.0 466014.0 0
251816.0 467290.0 0
255889.0 470436.0 0
262695.0 466335.0 0
260353.0 470095.0 0
266366.0 470324.0 0
278352.0 470417.0 0
283555.0 467192.0 0
287214.0 467279.0 0
288755.0 470432.0 0
291013.0 466155.0 0
302219.0 466922.0 0
307674.0 466284.0 0
313170.0 467411.0 0
318154.0 466449.0 0
321004.0 470713.0 0
326686.0 467384.0 0
329769.0 470856.0 0
336335.0 465944.0 0
331716.0 467028.0 0
339620.0 470253.0 0
351627.0 466767.0 0
357036.0 469201.0 0
365899.0 469140.0 0
370405.0 466341.0 0
381671.0 469865.0 0
386806.0 467971.0 0
403774.0 468593.0 0
410742.0 466598.0 0
407730.0 470166.0 0
414755.0 468957.0 0
418965.0 469368.0 0
423692.0 468712.0 0
427857.0 466817.0 0
428846.0 471494.0 0
432663.0 469359.0 0
437914.0 469657.0 0
442507.0 471721.0 0
447434.0 470713.0 0
452333.0 473004.0 0
41929.1 476810.0 0
46360.9 474370.0 0
50336.1 477751.0 0
54014.8 474907.0 0
55704.0 477594.0 0
63204.0 473309.0 0
59972.3 476456.0 0
66398.8 475590.0 0
70345.5 476215.0 0
73067.0 472558.0 0
77353.2 472497.0 0
74939.3 476717.0 0
79939.3 475921.0 0
83995.2 474177.0 0
88215.1 472296.0 0
92029.2 475019.0 0
96125.5 473586.0 0
100687.0 470994.0 0
104854.0 473751.0 0
112819.0 475470.0 0
114407.0 470899.0 0
119350.0 471090.0 0
123010.0 475416.0 0
127772.0 475776.0 0
128120.0 472236.0 0
133210.0 472418.0 0
137195.0 475944.0 0
138046.0 471344.0 0
142650.0 471557.0 0
147512.0 475415.0 0
148109.0 471087.0 0
153537.0 472740.0 0
160463.0 471727.0 0
164462.0 472529.0 0
167258.0 475222.0 0
170881.0 471467.0 0
177068.0 472854.0 0
186658.0 472378.0 0
191673.0 471885.0 0
193723.0 475966.0 0
197243.0 471218.0 0
203068.0 471081.0 0
208759.0 472920.0 0
218743.0 472226.0 0
216347.0 475591.0 0
221204.0 475871.0 0
227571.0 471085.0 0
234276.0 471436.0 0
232000.0 475971.0 0
237947.0 474873.0 0
241819.0 472054.0 0
246289.0 471204.0 0
251534.0 472550.0 0
257734.0 475619.0 0
262640.0 473677.0 0
271764.0 472021.0 0
284349.0 471931.0 0
288820.0 475751.0 0
292975.0 472156.0 0
298931.0 472081.0 0
303979.0 472286.0 0
307500.0 472110.0 0
312164.0 471932.0 0
316181.0 471136.0 0
316883.0 475565.0 0
325764.0 472323.0 0
334245.0 472805.0 0
341353.0 475799.0 0
345895.0 471748.0 0
352607.0 472326.0 0
361259.0 471752.0 0
357533.0 475960.0 0
366273.0 474050.0 0
371033.0 471950.0 0
376879.0 473379.0 0
385826.0 472093.0 0
386723.0 476128.0 0
391335.0 472897.0 0
397383.0 471091.0 0
401967.0 471737.0 0
400439.0 475428.0 0
405338.0 474608.0 0
411606.0 472037.0 0
409677.0 475327.0 0
413744.0 475726.0 0
416739.0 472719.0 0
417503.0 476069.0 0
421750.0 473275.0 0
426293.0 473917.0 0
430239.0 475832.0 0
434168.0 473541.0 0
438856.0 474699.0 0
445775.0 474258.0 0
443102.0 475647.0 0
449397.0 474684.0 0
451751.0 477118.0 0
456208.0 476371.0 0
35131.2 480330.0 0
38007.8 478217.0 0
39938.0 481594.0 0
45266.4 479411.0 0
48492.8 483463.0 0
53438.6 481933.0 0
63097.8 478220.0 0
58765.9 480970.0 0
67112.6 479493.0 0
71634.6 480821.0 0
78664.3 480202.0 0
75001.3 480408.0 0
83513.4 479110.0 0
87985.0 477194.0 0
92284.0 479990.0 0
96076.4 477689.0 0
99808.3 476248.0 0
98915.5 480647.0 0
103522.0 477185.0 0
107828.0 477267.0 0
103389.0 481092.0 0
112197.0 480256.0 0
117816.0 477080.0 0
131914.0 476833.0 0
128169.0 481078.0 0
133973.0 481269.0 0
142775.0 477283.0 0
152252.0 477399.0 0
158369.0 476457.0 0
161846.0 480931.0 0
163987.0 477049.0 0
166769.0 480765.0 0
171077.0 477471.0 0
176797.0 479138.0 0
182974.0 476879.0 0
189239.0 476806.0 0
198271.0 477116.0 0
203193.0 476180.0 0
202627.0 480735.0 0
207347.0 478301.0 0
212135.0 477159.0 0
226335.0 477698.0 0
236068.0 479873.0 0
242861.0 476682.0 0
248053.0 476298.0 0
252903.0 476581.0 0
250946.0 480748.0 0
262854.0 479253.0 0
267603.0 476242.0 0
272696.0 477900.0 0
278468.0 477070.0 0
283558.0 476516.0 0
282077.0 480447.0 0
293472.0 476721.0 0
293021.0 481142.0 0
297482.0 478115.0 0
302639.0 476592.0 0
301850.0 480506.0 0
307035.0 476955.0 0
311860.0 476680.0 0
316801.0 480682.0 0
322196.0 476310.0 0
330802.0 476287.0 0
327045.0 477124.0 0
333716.0 480529.0 0
336975.0 476718.0 0
346224.0 477762.0 0
351135.0 477918.0 0
355048.0 480115.0 0
362576.0 476874.0 0
369420.0 477407.0 0
373760.0 477744.0 0
381940.0 476448.0 0
377619.0 481221.0 0
381880.0 480560.0 0
385594.0 480500.0 0
390384.0 479097.0 0
395922.0 478174.0 0
401601.0 480914.0 0
407709.0 479810.0 0
412297.0 479150.0 0
416363.0 479913.0 0
420331.0 477861.0 0
425236.0 478406.0 0
430090.0 481097.0 0
435287.0 478604.0 0
442073.0 479301.0 0
447207.0 478052.0 0
447694.0 482402.0 0
451067.0 480015.0 0
454484.0 480378.0 0
460794.0 478535.0 0
458873.0 482044.0 0
464872.0 481908.0 0
27542.3 485229.0 0
24294.5 487579.0 0
31599.7 483672.0 0
35664.8 483538.0 0
33917.4 487452.0 0
37546.6 486154.0 0
41217.5 486516.0 0
44121.1 483290.0 0
45049.0 486656.0 0
52089.4 486950.0 0
55811.1 484948.0 0
59193.6 485523.0 0
63478.0 483386.0 0
68124.8 483498.0 0
71725.1 486396.0 0
75265.4 483358.0 0
78656.3 484275.0 0
82431.8 483868.0 0
87637.4 483215.0 0
92295.6 485603.0 0
95612.8 483124.0 0
100769.0 484788.0 0
108043.0 482512.0 0
112722.0 486039.0 0
116241.0 481795.0 0
121714.0 481388.0 0
118453.0 486221.0 0
131636.0 485830.0 0
[...]
POINT_DATA 5000
SCALARS Radius float 1
LOOKUP_TABLE default
5379.87 4792.73 4736.58 4931.38 3485.26 4329.05 6044.04 5415.48 5120.0 5580.89 6810.52 7613.27 5529.52 5255.32 6756.95 6324.23 3843.58 3320.52 4194.5 4270.53 5191.63 5344.25 4593.7 4107.03 4478.15 4043.57 5925.6 4501.51 5513.6 4556.36 6082.81 4151.94 4049.23 4685.34 5337.48 6124.89 4929.8 5708.81 5252.48 4780.03 5495.39 3996.0 3856.1 4665.12 3383.4 4133.88 4094.62 4834.9 3850.77 5325.36 5484.83 5085.53 3863.18 5351.6 2356.98 4998.37 6182.6 5492.18 5258.36 3951.75 5061.3 3642.12 3163.97 5542.27 5812.43 5122.66 5906.14 5484.19 7513.1 5254.28 4436.4 5733.48 4672.91 4182.53 3588.44 5645.7 5176.86 4366.19 5840.26 3672.51 6110.27 5561.06 5073.35 3615.22 5670.04 4380.59 3589.27 6716.79 3997.1 3607.45 5759.91 4333.2 4951.03 7199.21 6037.08 4523.7 2240.39 5096.78 4129.43 6142.94 4727.24 4602.25 5082.47 4763.45 4150.99 5445.87 4216.92 4177.94 4742.68 5782.6 5113.21 3929.19 3771.48 4271.69 5681.38 4138.42 3708.04 3240.09 5110.37 3191.99 4382.74 5601.05 4651.28 3586.91 3103.0 3554.9 5481.78 4015.92 5542.21 4487.31 3936.02 5043.05 4044.71 5980.74 5109.54 4927.02 5546.39 5945.65 5538.89 4730.36 4715.55 5867.73 6059.59 5013.56 5701.86 4499.64 4375.68 4468.59 5054.98 6030.06 5170.02 3557.27 4927.31 4688.68 4862.64 4402.52 4517.56 4432.58 6684.56 5903.42 3968.64 3955.56 3761.32 4118.05 6166.5 5553.16 2938.66 4940.78 4231.61 4008.92 4003.05 3942.53 3379.84 4827.82 5227.21 5697.78 3260.67 5123.52 4091.31 3038.33 4392.68 6372.62 4295.38 7565.34 5923.5 5091.39 4612.68 5293.9 3912.37 4973.83 6342.25 6691.39 4790.08 5344.0 6045.46 3815.26 4704.72 4571.7 4344.58 5634.83 5495.84 7034.11 6261.42 4862.21 4502.5 5922.5 5198.77 5987.17 6013.14 3979.82 4901.41 2765.2 5264.06 5664.98 5927.43 6355.42 4384.42 3693.63 4516.43 4948.92 5637.59 4937.14 5816.2 5693.81 4174.52 6483.19 3829.13 6759.9 5418.62 7021.47 5416.38 2720.68 4955.55 3563.63 5836.15 4238.81 4345.55 5885.03 2837.58 3871.88 5325.02 5200.76 5017.13 5279.39 5185.34 3673.74 5205.43 7447.37 4688.67 2635.86 4385.06 5292.64 5065.13 5936.02 5305.17 4861.08 5399.73 5390.22 3888.21 4805.87 4712.33 6038.78 4667.36 4254.17 5090.24 5615.42 5530.87 4281.49 4187.56 4840.84 4997.27 5135.69 4020.32 4245.72 5908.1 4541.21 6048.7 5896.46 5022.8 6268.1 4861.06 5253.55 5820.48 6946.21 2586.12 5433.8 5499.11 4011.77 3633.87 4850.01 3970.25 5147.67 5643.58 4292.06 5011.31 5138.31 4602.86 4659.59 6327.9 4048.37 5492.26 4362.19 5690.56 5762.84 3937.74 3115.91 4493.48 6084.86 3307.12 5924.89 4778.34 4002.16 4138.16 3486.22 4684.5 3091.3 6230.49 6458.82 4601.27 5493.32 3641.64 5740.68 5926.61 6051.14 3261.21 4195.44 5539.32 6704.06 3653.41 6496.85 5600.93 3856.01 5246.2 4390.66 5728.85 4827.23 6116.18 4924.6 6257.19 4733.32 7184.19 2899.43 2924.37 3867.67 4290.3 4695.45 4660.72 5891.05 5308.1 6902.81 6644.76 5629.19 5655.21 4786.6 5740.84 6445.94 4310.18 4218.06 7134.64 5978.9 3629.62 4716.19 5514.76 4301.06 3456.98 4877.67 4290.14 3066.13 6562.18 4156.38 5316.75 4164.68 6133.92 4178.4 3719.84 3784.5 3780.23 6481.79 3979.26 3471.03 6608.73 5011.84 6057.22 5062.71 4527.08 6125.34 5347.48 4810.12 5215.05 2775.04 5577.04 5006.58 5586.81 3688.8 4548.16 4621.75 3369.23 5449.18 4551.24 4220.88 5244.78 4749.8 6640.13 5082.6 5478.92 5551.36 6894.71 4467.94 4414.54 4850.81 5789.98 6138.47 7054.71 5489.43 5747.75 4277.89 4727.62 5054.25 4796.33 5360.19 4794.96 4874.39 5541.59 4124.71 5083.08 6337.56 4911.47 5803.39 5863.59 4381.97 4024.3 3255.82 5555.28 5242.73 2812.98 4737.14 4065.69 5603.15 5556.96 6052.7 3921.18 3798.62 6392.01 3666.57 4907.89 4937.02 4073.93 4645.41 4433.59 4320.28 5542.14 6122.55 2739.94 4931.53 5480.13 6308.71 6695.82 6405.76 3498.2 5105.16 4302.5 6006.16 6009.88 7055.53 5669.65 5934.22 5624.49 3095.48 4166.08 5320.28 5374.51 6739.08 4298.67 4796.58 5960.66 3999.48 4962.09 4203.26 5188.81 4359.62 3745.84 5690.26 4156.2 4497.59 5965.78 4374.35 6396.74 4138.46 3821.72 4986.77 6318.18 4481.53 3948.17 4581.13 5358.59 6387.01 4515.71 6519.71 5367.52 5210.03 5810.84 4230.54 5094.44 3748.24 4655.49 4933.21 5375.47 6038.14 2540.31 6029.66 5527.54 5573.7 5697.4 6038.2 4270.95 4055.8 5206.78 7325.81 5280.17 6425.26 5143.58 6186.19 4839.34 2980.99 6834.49 5525.39 3998.5 5938.34 5380.13 6394.38 5169.36 4686.65 5834.74 5788.23 3043.85 5581.75 3599.45 6730.19 4907.06 3735.44 5163.9 6043.3 5952.75 6332.36 6155.31 4223.33 5911.67 3323.28 5835.78 5794.24 4678.38 5448.61 5050.65 4827.33 5513.57 5013.67 5729.23 5826.04 5339.78 5762.59 4123.6 5224.12 4797.52 7042.12 6326.39 4471.58 4569.12 6098.14 5873.69 4472.17 6222.42 5654.31 4730.41 5696.88 5607.14 5975.63 5252.34 5564.02 4274.61 2965.79 6898.19 6035.6 5137.34 5330.45 5423.0 3856.59 4219.07 5413.79 3610.4 3092.35 4322.15 4714.54 3629.96 5478.47 3320.11 5351.39 6142.37 6061.47 6163.38 4566.18 4723.12 5120.49 5201.36 5262.61 6302.8 5409.61 4005.44 5555.88 6732.43 5028.96 3866.16 6362.12 4484.76 4840.01 5152.36 4511.82 5611.2 7933.0 4455.12 5173.87 4894.16 5711.87 5118.27 3372.79 4941.22 5932.23 5791.61 3369.13 4669.66 4479.66 4808.52 5367.2 5607.24 5461.13 4726.76 5839.13 5495.68 5489.34 5002.48 5708.14 5537.72 3920.42 8332.24 4553.56 5329.64 6049.55 5709.62 4127.74 2476.04 3942.07 5133.97 7443.72 3937.08 5260.34 5206.48 6586.45 5226.0 3365.82 4750.78 4143.78 4538.95 7092.87 4763.66 4850.14 5163.55 4819.73 6817.32 6471.55 4319.79 2965.01 6643.85 3637.61 6343.14 5501.93 5463.38 5945.21 4938.74 5470.77 3474.39 4643.85 4831.47 3923.03 6062.05 4004.04 5082.74 4289.17 6072.45 4410.55 7099.43 5526.14 5198.29 5077.33 3689.45 4746.52 5572.95 6338.89 6202.55 5584.06 5025.39 7111.16 5893.5 4547.19 5030.91 6022.17 5119.37 3982.23 3459.9 4853.39 4997.27 4964.09 4809.42 5024.9 4306.53 5659.17 5094.81 5972.06 5713.22 5861.71 4359.04 3183.98 3794.63 4524.28 3778.1 6175.81 4727.24 6677.09 5826.64 4220.65 6820.42 4816.2 6321.41 4896.52 4089.76 4751.02 3192.41 5184.56 5282.64 4715.72 5804.71 5046.33 4764.96 4242.52 5053.92 6352.26 3847.38 3818.59 4863.72 4143.08 7500.97 6623.85 4262.82 5102.36 4342.9 5065.11 5069.84 4051.44 4241.89 5054.74 5941.72 5991.09 5126.91 6600.94 4788.58 5371.02 6155.1 4709.35 5876.71 4373.3 5029.78 4163.5 5724.64 4970.88 5965.15 4666.81 4636.5 4940.42 3382.7 3703.1 3954.91 5085.71 5081.78 5499.39 6116.33 5644.82 6263.44 5960.56 5774.97 4020.95 5462.21 6313.06 5750.71 3493.7 6470.3 4200.03 4735.33 6915.83 5092.37 6444.77 4287.63 6314.07 5315.4 6449.45 3975.31 5125.78 3824.16 3868.18 4373.47 6723.16 3686.21 3817.13 5507.24 5023.15 6851.54 4583.31 4503.89 5806.08 5243.29 4093.08 4449.22 5543.27 4717.05 5287.2 6135.57 5998.38 4312.67 5013.13 5423.8 4270.24 4989.15 5017.78 4164.13 5015.69 4947.52 4305.57 6959.81 4829.35 5201.67 3791.79 4424.7 4754.05 5526.55 6084.93 5215.15 4987.87 3315.57 4739.42 5020.12 5727.3 5281.28 5356.51 4277.88 3057.03 4087.15 4758.21 3948.23 5228.18 5978.82 5787.31 3927.99 5868.82 4050.9 4978.31 4099.77 4414.48 4981.9 4537.32 4656.78 3600.43 4906.82 5131.24 5196.67 6496.67 5474.8 6262.72 3664.11 6515.84 2990.77 4888.6 4780.2 5078.86 4918.77 5100.1 6090.91 4946.42 4219.78 5923.4 4963.34 3295.83 5019.93 4459.28 4260.92 6250.23 6413.02 4863.27 4118.84 5862.86 5374.98 4719.7 6939.12 4406.4 5411.85 4844.57 4027.46 4470.98 5776.37 4516.28 3627.82 4044.45 5262.19 5344.43 5045.38 6070.58 5350.88 5372.61 5402.24 6480.17 4377.07 3844.9 3813.22 5101.59 3963.86 5570.3 4336.42 4306.11 5935.47 7589.94 3130.65 5628.24 5856.11 3327.49 4109.88 4234.94 4562.29 4980.85 5080.66 3417.33 5110.45 4926.42 5248.77 4642.34 4083.97 4520.1 5153.74 5874.89 4293.03 5813.4 4389.21 4128.98 4925.44 6246.22 4951.47 5246.61 4307.28 3697.96 4723.48 5538.93 4899.11 4745.45 2631.9 7267.18 6255.18 4668.71 5269.18 7228.46 6362.14 6719.88 5266.5 4523.88 4066.38 4948.98 4403.98 5227.52 4729.43 4092.24 5163.02 7144.24 5598.74 5687.83 5004.23 6442.69 6320.71 4648.04 6607.87 5117.47 4721.32 3163.78 4925.63 3293.56 5882.65 4739.14 4371.99 4434.19 3561.29 5187.7 4623.61 3885.86 4188.3 5235.29 5177.64 4378.3 4255.31 4479.94 5453.3 4407.9 3492.19 4440.57 4584.5 5122.63 6049.79 2315.64 4703.08 6345.13 5274.19 5516.95 5313.22 4413.85 3905.51 3999.94 4864.22 3901.8 5759.46 5083.41 3921.08 4190.31 5678.96 6048.86 4244.9 4285.32 6034.41 5452.83 5130.91 4948.5 4519.22 6445.22 3695.36 4564.34 4871.44 3848.93 5076.35 6020.48 3402.32 5903.66 4528.49 5004.67 5365.89 5419.37 5992.26 4466.03 3960.8 4511.54 5070.39 4923.9 5714.58 5208.32 3296.27 4713.25 4607.02 4204.84 3895.51 4528.09 4165.81 3556.85 5441.96 6291.51 5174.89 5882.89 4188.32 5774.81 4100.38 3746.31 5344.77 5027.98 5097.87 4278.07 6475.1 4969.21 2691.29 6256.02 5320.92 4305.43 4406.1 5450.44 5034.59 4942.77 4263.33 5080.18 4454.63 5381.16 5912.61 3279.1 6193.35 4560.84 6086.96 5233.78 5776.57 4562.74 5046.21 5683.26 5139.5 7493.3 4814.55 3527.05 5698.77 3464.83 2477.07 6413.11 4305.16 5274.14 5092.28 4903.82 5746.28 4082.47 5511.6 6261.75 4338.08 4517.73 5469.47 5660.16 6134.99 4989.56 4094.73 4718.54 6736.03 5548.29 6766.43 5916.16 5226.56 4390.41 6113.95 5599.49 4097.57 4050.08 5017.5 5563.79 6171.13 5511.88 2395.5 4512.11 7055.42 5486.68 5100.25 5490.43 5022.28 5197.52 4959.34 5383.07 4527.02 4591.87 4531.14 5013.42 3838.56 6552.22 5651.07 6248.81 6375.99 5200.05 5273.35 5234.29 2651.49 5313.66 5512.23 5275.32 5409.33 4898.94 5196.0 4613.31 4973.78 3329.99 3947.47 5091.68 7531.29 6243.0 6673.96 3161.47 3991.03 3435.9 6390.78 7435.25 4288.3 5370.52 4788.87 4652.29 4495.87 6022.72 5498.32 5527.33 5346.27 4989.09 2845.98 4880.14 5289.52 5314.85 3848.54 5941.4 6510.17 5742.65 5592.32 5565.13 4470.61 3701.27 4806.34 5653.9 4929.14 5894.61 3979.54 5304.13 5944.09 5833.06 4923.41 4497.31 5384.76 5529.42 5257.12 4965.89 5243.43 5659.95 4152.85 5551.9 2908.7 4453.64 3757.34 6415.61 4687.64 4419.71 5037.06 4541.8 3838.47 5175.29 2588.37 5842.56 5887.15 6235.57 5412.31 3623.87 3087.09 6934.37 4890.5 3981.07 5452.42 5328.22 6853.85 3497.9 5941.61 5782.48 6248.6 3836.45 5683.61 5805.86 6894.26 4986.51 5339.38 5178.99 6169.11 5615.35 4790.78 6422.84 4247.15 4502.18 5379.09 4602.85 5872.05 4853.02 4091.8 4645.58 5181.4 5670.2 5985.29 4247.23 4178.15 4694.83 4733.04 5509.42 6119.09 5788.66 5936.36 5069.25 3903.75 5048.89 4755.47 5935.03 5475.8 5314.69 6826.57 4249.46 5965.81 3702.37 5660.85 4643.31 2330.66 4177.19 6917.52 5402.21 3587.05 6718.19 4982.31 4307.48 4425.84 5331.02 4871.96 4863.23 3555.86 4402.67 4631.83 4996.99 4384.88 6887.27 6008.49 4220.46 4287.53 5612.21 5945.08 4968.03 3306.14 5490.58 4863.79 4702.06 3830.46 6031.67 4689.15 6138.12 4428.78 5409.66 4537.14 4345.67 4765.72 4642.66 4752.14 5329.59 4888.12 4950.97 5512.16 3197.63 4863.96 5191.08 5203.08 5374.07 7480.41 5163.77 3423.15 4488.85 3731.84 4901.07 3554.48 6496.52 5186.3 3436.15 4151.76 4020.4 3493.47 4721.02 4596.75 4933.65 5443.58 4558.46 5708.99 4049.02 4470.4 5346.68 5311.03 5255.12 4285.66 4896.11 4027.09 5801.99 5210.48 4962.77 6259.23 5088.44 4998.21 4711.62 4114.24 4268.65 5349.31 4649.22 4354.08 5094.52 4256.43 4946.74 2682.24 4520.62 5229.48 5475.7 4485.99 5127.16 5435.74 4244.99 6050.81 5543.46 6185.89 3997.96 4750.17 3460.94 3990.25 3691.0 4752.51 6229.37 4236.14 4407.87 5282.91 3797.33 5945.89 7256.35 4105.55 4800.69 6566.1 6065.22 6386.78 4456.39 4896.39 3633.79 6081.14 5480.83 4607.85 6070.3 5128.57 6000.7 5604.21 3169.67 5204.04 3361.92 6710.88 5395.14 3967.48 5235.11 6213.04 6622.11 3685.13 6790.73 4655.16 5251.4 3867.19 5097.69 5857.79 4039.91 5276.7 5036.58 6119.63 5411.02 4752.9 4287.16 5199.44 4062.5 4435.51 4588.7 5683.95 3766.55 4579.69 5010.2 5005.85 4216.17 6484.17 4938.72 4254.37 3374.08 4031.78 6098.1 5687.85 5296.29 4611.53 2681.29 5094.48 5172.53 3872.61 4238.4 4135.62 6132.95 5534.94 4860.33 7644.38 7552.94 4051.34 6101.92 5323.3 3627.55 4635.6 4256.67 4662.56 3457.48 5166.79 2976.22 3405.98 5417.15 5394.55 3688.16 4681.72 4945.39 5996.33 5928.32 5415.19 4612.62 4016.18 3619.07 5526.75 4275.57 6385.23 5327.45 2983.99 2614.4 5560.26 6363.92 6205.93 4439.35 5830.72 6184.4 3758.07 3828.81 4373.45 4082.57 5733.62 5169.9 5282.51 4460.92 3004.16 4042.28 5235.17 4421.12 4779.5 4340.76 5254.49 4221.28 4303.19 5514.84 3914.2 5421.53 5937.08 4135.08 5620.74 5233.29 4312.56 4778.82 4612.06 5467.84 4750.58 5926.11 6667.68 5767.9 5211.38 5089.62 4590.55 4741.26 5920.32 4255.85 4732.09 3988.3 6543.13 4356.25 5149.72 5776.96 5464.25 5486.48 5301.47 4617.55 3645.12 5424.88 5415.85 8659.64 5469.13 6027.62 5765.42 6123.03 5966.61 5711.11 4575.94 5021.88 3546.71 5956.65 5768.57 5564.23 5950.04 3735.24 4231.83 2435.33 6401.43 4074.48 4558.47 5020.71 5997.88 5839.71 5576.92 4318.48 5266.22 3930.79 5226.97 3685.13 6004.68 3312.06 3361.26 6799.4 6239.84 5865.39 4427.28 3931.07 6079.11 6430.39 7440.72 3949.6 5703.6 6326.18 3950.63 5661.62 6631.19 6648.68 4467.04 5626.61 5817.25 5061.98 6632.99 4537.6 4923.24 4419.61 7177.44 4563.46 5309.98 6553.94 5255.18 5460.65 4767.78 5463.41 5225.33 4929.75 4435.36 6649.96 5134.39 5784.3 4256.57 5442.32 6088.68 4643.56 5657.36 6124.08 5029.47 5053.95 5266.01 5253.37 6515.8 3685.65 5869.4 3701.16 4186.6 5895.77 5750.07 6136.49 4757.74 4216.95 6045.67 4209.49 5742.74 3821.94 4244.21 4947.24 3875.05 6200.54 5148.58 4199.45 7234.66 6599.66 4055.54 4233.8 6098.95 4997.83 4893.49 3991.42 5325.44 4388.63 5102.75 4597.29 4200.09 4498.25 5931.77 4188.87 5151.21 6574.95 6333.29 4477.04 5731.57 5662.55 5737.92 6408.83 5365.24 4004.35 4763.96 5754.18 5180.76 3418.99 4480.95 5278.36 4409.63 5521.25 3661.9 3082.32 5370.85 5949.46 3658.37 3178.54 5376.71 4448.13 5070.29 4807.28 4867.08 4266.03 5280.69 4713.74 4220.03 6923.84 5407.78 4084.49 5449.46 6179.96 6113.54 5147.36 6260.79 3963.76 5528.53 6799.88 3062.43 5726.66 5426.78 5652.0 2967.38 4159.35 6477.91 4237.98 6439.37 6045.22 4614.3 3532.3 5580.92 5769.98 5973.33 5067.46 3583.21 2221.99 2511.46 3580.58 4011.37 4863.01 2775.69 5356.79 4785.25 3619.79 6306.21 4908.49 2978.76 2040.66 7016.27 5884.9 3876.21 5689.26 4916.22 4992.42 6022.7 4940.84 4833.46 4809.67 7248.4 5280.12 3946.28 5984.81 5439.9 5367.73 3540.11 4640.06 3456.47 5471.74 4652.01 3548.39 5421.64 4858.51 4207.54 4886.12 6419.12 4976.12 4817.16 5453.98 5148.08 4834.87 5760.22 5938.17 4795.43 5398.64 5097.95 6817.57 3614.96 3886.68 6853.04 5703.74 4745.43 4747.55 3056.7 3755.95 4360.23 6234.32 5293.51 4446.06 5008.63 3450.93 5132.68 6595.03 4993.35 6218.95 5222.16 5107.23 5136.08 3776.94 5558.68 4765.02 5629.39 2684.03 4768.61 2261.36 5075.55 5506.19 6719.94 4950.67 5227.59 6166.29 5453.6 5703.07 5294.77 4662.43 4709.05 4630.82 4043.66 4813.08 4540.86 5990.52 4835.83 5604.35 6316.56 3091.67 6420.81 4081.97 4715.58 5401.99 5151.52 4347.74 5291.9 4009.62 2081.58 6505.78 5461.55 6519.43 5876.64 5424.46 4857.84 4962.21 4684.44 4749.59 4858.44 3468.42 4673.35 3809.69 4771.13 5297.19 4351.38 5550.75 5933.7 5466.33 4444.97 5721.05 3498.16 4409.27 4514.39 4588.99 4321.21 4344.34 3673.28 4928.27 3583.49 5052.84 3375.28 4366.74 5625.65 4301.61 3184.64 6107.89 4446.84 5660.55 3718.69 4514.79 3672.21 2216.82 4509.89 6752.75 5269.38 5607.3 5108.06 3573.73 4693.52 4222.4 4000.43 3420.08 4912.04 5831.96 4539.07 5464.68 5591.76 4586.19 4585.31 6625.18 5323.91 4270.74 6293.89 4558.15 2761.07 4983.39 5366.52 4690.55 5533.72 5533.42 4802.32 4010.57 4599.38 5246.47 4187.31 6157.04 6191.29 4522.21 7422.36 5161.01 4298.15 4628.4 5832.37 4642.93 5409.63 4263.16 3077.84 6024.75 6109.49 5567.93 5860.67 5332.65 3764.1 6451.33 5413.31 4332.87 4743.59 5208.14 3317.83 4450.7 3763.05 5092.24 5369.08 3101.75 4518.04 4766.06 4874.18 5435.19 3298.2 4270.15 6865.76 6449.64 6464.8 4680.94 5799.69 5571.72 5236.43 3208.96 5285.07 7051.9 4184.23 4608.41 4144.57 5980.59 6834.41 6226.14 3000.29 4247.69 4209.31 5718.28 6242.79 5950.45 5713.03 5849.65 4165.21 5134.67 5297.16 4936.96 5206.33 5530.49 5653.03 6192.0 4940.28 5885.28 3004.34 3022.6 2928.82 4811.76 4914.45 4698.87 4568.41 3624.7 4661.03 5262.35 4691.91 4475.83 2685.81 4510.8 5889.35 5010.04 4570.98 5097.45 4275.07 5825.38 4185.61 5737.75 4047.87 5742.47 3778.02 6552.21 5417.8 5146.37 7132.12 3678.08 4836.16 5518.57 5463.48 5730.33 3240.51 5545.46 4527.99 4376.7 5190.61 8325.01 6051.83 4440.81 5941.9 3973.12 6642.76 4497.78 4243.79 5987.42 5433.65 4442.22 4887.76 4669.06 3012.99 4811.32 6400.08 6184.88 5829.32 4396.25 5551.95 5549.49 3918.87 2275.45 5423.42 6605.86 5012.5 4383.56 3562.79 7093.13 4953.1 5818.95 4093.99 3604.14 3940.49 4452.54 4406.05 5089.1 5828.35 4028.32 2711.19 5876.72 4099.92 4884.59 4680.14 3858.06 4083.79 4187.94 5263.27 6300.92 5021.77 3796.15 5599.29 4801.8 7216.98 5271.02 7013.17 4601.74 6506.86 5088.57 5580.34 3852.6 5775.31 4215.0 4603.5 4481.76 5452.78 5065.26 4356.36 4304.41 4892.44 5578.94 7610.49 4286.17 6579.31 5323.55 5375.1 4172.6 5313.12 5351.56 5160.59 3984.88 4732.09 4320.42 4255.34 5064.79 5480.3 7509.24 4394.56 5896.26 5388.78 6101.13 4573.72 5099.21 4917.99 4367.78 5636.4 4350.12 5227.02 5670.0 4232.16 5300.96 5151.11 4344.51 5680.94 3781.77 5581.55 5193.01 4543.1 6550.44 3860.83 3764.06 5732.27 4523.39 5278.56 5434.47 6917.62 5829.22 4013.38 5631.14 4343.78 5811.18 5263.3 4909.65 4008.15 6523.86 7693.4 4286.49 4326.48 4437.07 3449.37 5491.9 6405.0 4659.16 5789.55 4633.05 4901.2 5711.62 4990.79 5166.79 6479.39 2895.63 4516.53 4122.92 5079.22 5381.54 5810.77 5474.15 7519.2 6355.68 4511.7 4478.6 3953.55 4304.63 4469.54 4314.56 4173.54 5606.51 6038.68 5046.12 3834.47 4807.4 3805.67 4590.01 6101.86 5993.0 4803.57 5966.42 4110.59 4706.5 3332.49 5354.66 4647.67 4214.44 5375.12 4787.97 3746.36 6789.23 4777.03 3684.56 4246.61 6028.09 5452.36 3804.5 6486.37 5498.42 5318.53 3344.57 4281.98 7165.9 5344.83 7046.11 3427.63 4146.81 4863.97 6342.48 5756.75 4587.67 5599.7 4163.74 6969.28 3665.95 5698.96 4095.75 3603.51 4298.45 5222.51 6609.84 5135.96 3834.43 5658.37 4707.06 6074.94 3474.5 5491.37 4250.88 6348.03 3475.67 4792.39 7038.89 5146.37 5067.56 6137.8 2735.53 3352.35 5116.6 3747.03 2783.85 4356.49 4526.81 3994.07 4219.94 5907.46 4264.91 6740.71 5399.29 4909.31 5971.22 6522.59 4798.17 3568.28 5425.98 5996.66 4405.42 4997.91 3598.08 4599.81 5698.23 7300.58 4714.83 3608.06 6633.61 5217.95 4867.7 5484.36 4277.24 4063.9 5291.05 5161.1 3928.53 4619.2 5166.41 5740.65 5067.56 6349.67 6329.53 4139.3 6541.45 4227.41 5078.31 5391.48 4923.43 5131.15 4847.14 3950.27 5116.66 5378.23 3566.79 5374.67 4981.43 3989.7 4215.2 5069.89 4157.29 6813.72 5327.75 4609.02 4896.65 4638.18 4196.37 6448.66 5220.76 6945.98 5138.2 5783.48 4449.98 4701.5 4504.35 4840.44 5093.82 5951.81 3924.14 6918.35 4296.69 6238.32 3319.67 6471.42 5283.8 4076.59 4428.14 5164.1 6464.15 4972.17 6685.4 5699.53 4222.77 3783.54 5268.38 5527.23 4805.33 3863.67 5980.95 4814.12 6193.08 6069.3 5887.01 5168.35 5388.39 5335.47 3728.18 5633.61 5048.19 6799.23 4888.27 6487.56 4854.11 4998.22 5533.19 5417.21 6602.43 5583.61 6063.64 7382.3 2995.67 4022.56 5522.21 3772.3 4855.01 4923.57 3340.09 6061.63 2279.05 4829.35 4075.28 8137.11 5484.32 6650.77 4067.96 7104.73 2596.96 5701.75 4350.15 4264.54 3516.27 4750.49 4263.78 5228.75 4643.9 6047.14 5009.83 5210.38 5717.8 3629.44 5003.78 3299.24 6246.56 4741.28 4061.6 2603.64 5107.0 6212.15 6502.97 4783.07 4946.23 6083.28 5211.6 5806.31 4453.97 3556.79 5456.71 3503.41 7317.04 6412.67 7001.83 4771.65 5012.97 5589.37 5439.49 5212.43 5454.12 4834.3 6804.79 6372.13 5369.5 5404.01 6016.19 4124.49 4479.11 5714.25 5325.96 4850.06 6332.01 7044.29 4234.18 4049.16 7085.01 3936.95 6153.94 6836.82 3862.77 4631.99 4740.98 3185.39 5128.77 7122.87 5797.36 4243.26 4153.84 5119.86 4592.15 5084.17 4901.44 3776.8 5096.43 6156.21 6104.26 4653.83 6171.71 4986.71 3628.89 6589.82 4668.88 5027.43 5522.75 5867.64 6208.9 6059.93 5602.53 5073.02 6545.43 6760.92 4989.2 4711.04 7144.05 4506.18 4824.12 6162.3 3272.75 5971.21 5261.19 7043.44 4263.65 6106.43 4807.35 5467.63 5666.95 4642.2 4811.22 3683.86 4918.76 5293.75 4208.41 5826.78 5473.72 2856.55 4553.68 3758.22 4852.58 4757.2 3205.68 5561.74 6100.73 4745.79 4908.75 3971.08 6204.65 4482.9 4036.91 4593.7 5110.11 6379.14 6639.64 3687.65 4887.52 5478.95 6348.54 4066.57 5642.35 5156.76 6357.47 6101.57 4891.38 5535.91 32