# vtk DataFile Version 2.0
Time step 59
ASCII
DATASET UNSTRUCTURED_GRID
POINTS 5000 float
202706.0 259373.0 0
207580.0 257423.0 0
214097.0 258923.0 0
209500.0 260575.0 0
222022.0 261124.0 0
228972.0 260738.0 0
232696.0 259002.0 0
271108.0 260579.0 0
277852.0 259133.0 0
291106.0 259789.0 0
297464.0 257708.0 0
202416.0 264402.0 0
206639.0 261772.0 0
207055.0 266116.0 0
211333.0 263687.0 0
217320.0 263715.0 0
226244.0 264247.0 0
232985.0 262358.0 0
230262.0 265302.0 0
237593.0 261490.0 0
243104.0 263225.0 0
249752.0 264004.0 0
255982.0 262826.0 0
261224.0 264523.0 0
266211.0 263361.0 0
270509.0 265062.0 0
274985.0 264575.0 0
280442.0 264639.0 0
285613.0 262094.0 0
292074.0 265301.0 0
297166.0 262988.0 0
203018.0 269644.0 0
214043.0 267883.0 0
209563.0 270603.0 0
218322.0 270157.0 0
222082.0 266595.0 0
227116.0 268622.0 0
231915.0 270243.0 0
234983.0 266426.0 0
236445.0 271300.0 0
240005.0 267792.0 0
245098.0 268390.0 0
249626.0 269461.0 0
253620.0 268634.0 0
257769.0 267198.0 0
264063.0 267691.0 0
260736.0 270242.0 0
268349.0 268398.0 0
273072.0 269464.0 0
277717.0 268708.0 0
284101.0 267151.0 0
281322.0 268714.0 0
285068.0 271220.0 0
287678.0 266592.0 0
288982.0 269972.0 0
296672.0 268983.0 0
201898.0 274086.0 0
206109.0 274321.0 0
214264.0 273158.0 0
218810.0 274712.0 0
223152.0 272203.0 0
228439.0 273692.0 0
233168.0 274420.0 0
237118.0 275760.0 0
241566.0 273100.0 0
247132.0 272901.0 0
251958.0 272956.0 0
256712.0 272681.0 0
260907.0 274542.0 0
265269.0 272480.0 0
269875.0 272260.0 0
268618.0 275771.0 0
272956.0 275338.0 0
276267.0 272595.0 0
280460.0 272452.0 0
283777.0 276396.0 0
288907.0 274375.0 0
292348.0 271607.0 0
296212.0 275908.0 0
202761.0 278304.0 0
210639.0 277655.0 0
216782.0 279771.0 0
222818.0 277917.0 0
227004.0 277541.0 0
230710.0 278136.0 0
234740.0 278742.0 0
237108.0 281699.0 0
240666.0 278992.0 0
249760.0 277189.0 0
245089.0 277258.0 0
254471.0 277104.0 0
251896.0 281263.0 0
258953.0 278480.0 0
255846.0 281112.0 0
264516.0 278598.0 0
269298.0 280811.0 0
270563.0 278151.0 0
273372.0 280009.0 0
278030.0 277401.0 0
281929.0 280853.0 0
287860.0 278527.0 0
290216.0 281259.0 0
291399.0 277924.0 0
293630.0 280734.0 0
297549.0 281687.0 0
202046.0 282648.0 0
202033.0 286224.0 0
206695.0 282005.0 0
211942.0 283373.0 0
216842.0 285532.0 0
221681.0 283195.0 0
226940.0 281830.0 0
229435.0 285870.0 0
232604.0 282809.0 0
236974.0 286777.0 0
243761.0 283541.0 0
240643.0 283469.0 0
247165.0 281680.0 0
246300.0 285706.0 0
254420.0 284923.0 0
250156.0 285439.0 0
259691.0 283762.0 0
265901.0 284949.0 0
271799.0 284140.0 0
277483.0 283690.0 0
282691.0 284863.0 0
285995.0 282143.0 0
286359.0 285994.0 0
290515.0 285070.0 0
294396.0 284192.0 0
297852.0 285992.0 0
202300.0 290069.0 0
206864.0 287610.0 0
212581.0 288693.0 0
217803.0 291612.0 0
220887.0 287594.0 0
222689.0 290961.0 0
225373.0 287346.0 0
232437.0 287357.0 0
229673.0 289690.0 0
233745.0 291388.0 0
242516.0 287468.0 0
248133.0 288739.0 0
244928.0 291895.0 0
252559.0 289573.0 0
257007.0 288139.0 0
261569.0 289246.0 0
270120.0 288346.0 0
266055.0 290593.0 0
269295.0 291555.0 0
274317.0 288033.0 0
280292.0 287562.0 0
277754.0 288513.0 0
276454.0 290949.0 0
279660.0 291004.0 0
283651.0 289276.0 0
288895.0 289051.0 0
294043.0 288686.0 0
298375.0 289554.0 0
201937.0 293901.0 0
201650.0 296855.0 0
205547.0 292867.0 0
208684.0 296495.0 0
209404.0 291942.0 0
213068.0 294098.0 0
222163.0 295301.0 0
226484.0 292710.0 0
230477.0 295005.0 0
239429.0 292359.0 0
235108.0 296034.0 0
243331.0 296421.0 0
249165.0 292177.0 0
247588.0 296153.0 0
252360.0 295019.0 0
257183.0 293064.0 0
259526.0 296840.0 0
262887.0 294387.0 0
268092.0 295278.0 0
272946.0 292401.0 0
272675.0 296835.0 0
277274.0 294927.0 0
282363.0 294448.0 0
286545.0 292545.0 0
287914.0 296833.0 0
291197.0 292920.0 0
295378.0 293038.0 0
293441.0 296989.0 0
298500.0 292454.0 0
297870.0 295848.0 0
202338.0 300157.0 0
204642.0 297010.0 0
205831.0 300819.0 0
212794.0 298144.0 0
209871.0 301147.0 0
213899.0 301136.0 0
217155.0 297762.0 0
221843.0 300191.0 0
226444.0 297726.0 0
231571.0 300421.0 0
239296.0 297342.0 0
236800.0 300662.0 0
241920.0 301380.0 0
245883.0 299558.0 0
250586.0 300585.0 0
255812.0 298807.0 0
264839.0 298645.0 0
260683.0 300742.0 0
269347.0 300213.0 0
279680.0 299072.0 0
275459.0 299380.0 0
283564.0 298695.0 0
286046.0 301309.0 0
290022.0 301092.0 0
294369.0 301093.0 0
297841.0 299665.0 0
202726.0 304326.0 0
207156.0 304791.0 0
211922.0 305016.0 0
217133.0 303263.0 0
214857.0 306415.0 0
221769.0 305293.0 0
226119.0 302568.0 0
229732.0 305115.0 0
233522.0 305436.0 0
237796.0 305414.0 0
242554.0 306527.0 0
246193.0 303340.0 0
250250.0 306071.0 0
255909.0 305168.0 0
261363.0 305563.0 0
265473.0 303333.0 0
269305.0 305915.0 0
272780.0 303045.0 0
277393.0 303390.0 0
282399.0 303308.0 0
286903.0 304680.0 0
292053.0 305807.0 0
297301.0 304302.0 0
201742.0 307867.0 0
202587.0 311298.0 0
205233.0 308022.0 0
208914.0 308343.0 0
206608.0 311367.0 0
212792.0 309015.0 0
210476.0 311964.0 0
217325.0 308769.0 0
221966.0 310475.0 0
226415.0 307902.0 0
228714.0 311738.0 0
231285.0 308916.0 0
235401.0 310032.0 0
239639.0 310343.0 0
244372.0 311482.0 0
246422.0 307410.0 0
249083.0 310812.0 0
252831.0 309717.0 0
260193.0 309230.0 0
264715.0 308719.0 0
269200.0 310463.0 0
273850.0 307986.0 0
278923.0 307686.0 0
280595.0 311416.0 0
276785.0 312313.0 0
283701.0 308219.0 0
288353.0 309010.0 0
285800.0 312322.0 0
292117.0 311054.0 0
296480.0 309869.0 0
203009.0 315721.0 0
207881.0 315503.0 0
212548.0 315989.0 0
214610.0 312573.0 0
218533.0 313808.0 0
216168.0 316244.0 0
222749.0 315403.0 0
225678.0 312423.0 0
227653.0 316296.0 0
232162.0 313637.0 0
236963.0 315383.0 0
241017.0 314063.0 0
241102.0 317180.0 0
244033.0 316134.0 0
247767.0 315069.0 0
251936.0 314448.0 0
256683.0 312326.0 0
259577.0 316476.0 0
261828.0 312903.0 0
265561.0 313105.0 0
268585.0 315504.0 0
272677.0 313505.0 0
275614.0 317139.0 0
279967.0 316116.0 0
282959.0 312954.0 0
285309.0 317097.0 0
289473.0 314044.0 0
293564.0 314783.0 0
297449.0 314810.0 0
202573.0 320369.0 0
206237.0 320066.0 0
210602.0 320037.0 0
215678.0 320645.0 0
219540.0 318017.0 0
223723.0 319528.0 0
220437.0 322372.0 0
227936.0 321068.0 0
232022.0 318408.0 0
235949.0 320806.0 0
239923.0 320178.0 0
243454.0 319672.0 0
246572.0 318388.0 0
246797.0 322472.0 0
250104.0 318820.0 0
255166.0 318731.0 0
259878.0 320744.0 0
264017.0 317822.0 0
262976.0 322407.0 0
268093.0 319022.0 0
266441.0 322160.0 0
270357.0 322004.0 0
271929.0 318250.0 0
274702.0 321703.0 0
277752.0 319793.0 0
281739.0 320746.0 0
290658.0 318903.0 0
296287.0 319796.0 0
202774.0 324567.0 0
207754.0 324216.0 0
212247.0 324358.0 0
209832.0 327334.0 0
213205.0 327700.0 0
217028.0 325725.0 0
222266.0 326708.0 0
224672.0 323345.0 0
227979.0 326247.0 0
231747.0 323518.0 0
235498.0 325060.0 0
238835.0 324374.0 0
242355.0 323623.0 0
244646.0 326904.0 0
248381.0 326828.0 0
251841.0 323751.0 0
256832.0 324103.0 0
260622.0 325513.0 0
264864.0 326262.0 0
268421.0 325178.0 0
272010.0 325402.0 0
278657.0 323382.0 0
275852.0 326053.0 0
279992.0 327237.0 0
282322.0 324450.0 0
284270.0 327587.0 0
286474.0 322650.0 0
288643.0 326401.0 0
292016.0 323448.0 0
292525.0 327655.0 0
297034.0 325018.0 0
201519.0 328048.0 0
201971.0 330951.0 0
205780.0 328398.0 0
204852.0 332130.0 0
207683.0 331508.0 0
210862.0 330946.0 0
215639.0 330313.0 0
219233.0 329559.0 0
222518.0 331784.0 0
225519.0 329768.0 0
233105.0 328671.0 0
229607.0 331187.0 0
237249.0 327961.0 0
237413.0 331810.0 0
240695.0 328066.0 0
240962.0 331935.0 0
243455.0 330540.0 0
246825.0 330454.0 0
254655.0 327628.0 0
251277.0 329741.0 0
257753.0 328587.0 0
255270.0 331286.0 0
258464.0 332406.0 0
261049.0 329474.0 0
264590.0 330382.0 0
268983.0 329255.0 0
273314.0 328354.0 0
272736.0 331364.0 0
276738.0 330397.0 0
280927.0 331049.0 0
284218.0 331207.0 0
288324.0 330548.0 0
292439.0 332172.0 0
296724.0 330029.0 0
197272.0 336979.0 0
202708.0 335022.0 0
207310.0 334582.0 0
205396.0 337771.0 0
211082.0 335598.0 0
214217.0 337849.0 0
214676.0 333822.0 0
219088.0 333763.0 0
217139.0 336942.0 0
222934.0 335834.0 0
226138.0 333761.0 0
233709.0 333264.0 0
230237.0 335373.0 0
233312.0 337188.0 0
236612.0 336345.0 0
240356.0 335406.0 0
244261.0 334075.0 0
248692.0 333705.0 0
246601.0 337457.0 0
252668.0 333829.0 0
250592.0 337039.0 0
253495.0 337099.0 0
256031.0 335069.0 0
259158.0 336475.0 0
261822.0 333655.0 0
266128.0 333800.0 0
269980.0 334232.0 0
267448.0 337520.0 0
274167.0 334806.0 0
278106.0 334565.0 0
282285.0 335189.0 0
286072.0 334057.0 0
286411.0 337689.0 0
289953.0 335645.0 0
293373.0 335106.0 0
296927.0 334903.0 0
202120.0 339209.0 0
202261.0 342853.0 0
208665.0 338869.0 0
205404.0 341158.0 0
209148.0 342267.0 0
212160.0 339884.0 0
216865.0 341254.0 0
220353.0 338276.0 0
223708.0 340156.0 0
220857.0 341659.0 0
226994.0 337990.0 0
227826.0 342436.0 0
230855.0 339537.0 0
231551.0 342360.0 0
234702.0 340576.0 0
238936.0 340191.0 0
242855.0 338512.0 0
242363.0 342085.0 0
249040.0 340256.0 0
245696.0 341882.0 0
252018.0 340297.0 0
256138.0 339836.0 0
260150.0 341117.0 0
263334.0 337871.0 0
264158.0 342255.0 0
266889.0 340817.0 0
271084.0 338663.0 0
275494.0 338369.0 0
274062.0 342344.0 0
279437.0 339399.0 0
283658.0 338710.0 0
283575.0 342010.0 0
280691.0 343461.0 0
286906.0 340993.0 0
290109.0 339683.0 0
293800.0 338217.0 0
293795.0 342269.0 0
297699.0 339242.0 0
297756.0 342712.0 0
203085.0 346947.0 0
206304.0 344218.0 0
207724.0 347897.0 0
212986.0 343169.0 0
209941.0 345267.0 0
212805.0 346479.0 0
216743.0 346158.0 0
223873.0 343590.0 0
220393.0 344789.0 0
222762.0 347143.0 0
226461.0 346692.0 0
233877.0 344155.0 0
230809.0 346306.0 0
237092.0 344259.0 0
235083.0 347954.0 0
240624.0 344688.0 0
244170.0 345050.0 0
249466.0 343554.0 0
247163.0 345373.0 0
253512.0 344398.0 0
257643.0 345050.0 0
261689.0 345330.0 0
269539.0 343089.0 0
266007.0 345155.0 0
268556.0 347010.0 0
271896.0 346343.0 0
277535.0 343172.0 0
275599.0 346448.0 0
279472.0 346690.0 0
283023.0 345066.0 0
[...]
POINT_DATA 5000
SCALARS Radius float 1
LOOKUP_TABLE default
5415.48 5120.0 6182.6 2356.98 5258.36 5061.3 3163.97 5580.89 6810.52 5840.26 5073.35 4834.9 3863.18 5085.53 4998.37 5492.18 3951.75 3642.12 4499.64 5812.43 5906.14 7513.1 5254.28 4436.4 5733.48 3588.44 5645.7 5553.16 6110.27 5561.06 5670.04 6044.04 5351.6 5484.83 4715.55 5867.73 5013.56 4375.68 5542.27 5054.98 5122.66 5484.19 3557.27 4688.68 4402.52 4182.53 4517.56 4672.91 5176.86 4366.19 3672.51 2938.66 4940.78 4008.92 3615.22 6716.79 3850.77 5325.36 5538.89 4730.36 6059.59 5701.86 4238.81 4468.59 6030.06 5170.02 4927.31 5185.34 4432.58 5903.42 3761.32 3955.56 5292.64 4118.05 5065.13 5936.02 5305.17 4380.59 7613.27 5546.39 6759.9 7021.47 5926.61 2720.68 4955.55 3563.63 4345.55 5885.03 5200.76 5325.02 4862.64 5017.13 5205.43 3673.74 6684.56 3968.64 2635.86 4385.06 6166.5 4290.3 4231.61 3942.53 3379.84 3607.45 4951.03 4133.88 4094.62 5945.65 5418.62 5493.32 5416.38 6051.14 4195.44 5836.15 6704.06 2837.58 3653.41 5246.2 3871.88 4827.23 4390.66 6116.18 7447.37 4688.67 7184.19 3867.67 4861.08 4003.05 4827.82 3589.27 4333.2 4665.12 6483.19 6230.49 7054.71 4601.27 3641.64 5740.68 3261.21 4277.89 5539.32 5600.93 3856.01 5541.59 5279.39 4911.47 5803.39 4924.6 4381.97 3255.82 4733.32 2924.37 2899.43 2812.98 4065.69 5399.73 4805.87 5759.91 3260.67 3936.02 3383.4 4927.02 5980.74 4174.52 5109.54 5489.43 5747.75 4796.33 6496.85 5360.19 4839.34 4124.71 5083.08 5728.85 6337.56 3998.5 5863.59 6257.19 5242.73 4737.14 5603.15 5390.22 4712.33 6038.78 5227.21 3997.1 5123.52 3038.33 4295.38 4780.03 3856.1 4044.71 3829.13 5816.2 3091.3 6458.82 5527.54 5054.25 7325.81 4874.39 4794.96 6186.19 2980.99 6834.49 5525.39 4024.3 5938.34 5555.28 4695.45 4686.65 4660.72 3888.21 5697.78 4667.36 4392.68 5495.39 4487.31 5693.81 5789.98 2540.31 6138.47 5573.7 4727.62 4055.8 6425.26 5143.58 4840.01 5611.2 7933.0 5173.87 6394.38 5118.27 5169.36 5834.74 5556.96 3921.18 6902.81 5529.52 3554.9 5252.48 3996.0 4002.16 4015.92 4138.16 4778.34 6029.66 6302.8 5697.4 4005.44 5206.78 5280.17 5028.96 6362.12 4484.76 5152.36 4220.65 4455.12 5380.13 5711.87 5932.23 5788.23 3798.62 5581.75 6052.7 5891.05 4254.17 4091.31 7199.21 6124.89 5708.81 5043.05 4684.5 5120.49 3486.22 5409.61 4270.95 6038.2 5555.88 6732.43 3866.16 3183.98 4524.28 4511.82 5826.64 6820.42 4816.2 4894.16 4896.52 4941.22 5791.61 4479.66 6392.01 3666.57 6644.76 5615.42 4523.7 5255.32 5337.48 5542.21 5924.89 6894.71 4414.54 5262.61 5201.36 5094.81 5713.22 5861.71 5017.78 3794.63 3778.1 6175.81 4727.24 6959.81 4829.35 6321.41 4089.76 3372.79 4751.02 5184.56 5282.64 4715.72 3369.13 5308.1 6372.62 7565.34 5637.59 5481.78 4937.14 3307.12 4467.94 5551.36 6038.14 4306.53 6135.57 5972.06 4312.67 4359.04 5015.69 4947.52 4520.1 6677.09 5813.4 5201.67 5526.55 3192.41 4987.87 5367.2 4669.66 4808.52 3043.85 5461.13 6730.19 4907.89 4937.02 5629.19 6037.08 3103.0 4049.23 6084.86 3586.91 3115.91 5478.92 4933.21 4850.81 4723.12 5024.9 5998.38 5659.17 4270.24 5423.8 4989.15 3417.33 4164.13 4642.34 4305.57 5874.89 3791.79 4293.03 4424.7 4754.05 4951.47 6084.93 3315.57 4764.96 5607.24 4726.76 3599.45 5655.21 5091.39 6756.95 4929.8 5601.05 4948.92 4516.43 5810.84 3748.24 5094.44 5375.47 4655.49 4809.42 4717.05 4562.29 5287.2 4234.94 5013.13 5080.66 4926.42 5153.74 5248.77 4165.81 4528.09 3556.85 4389.21 4128.98 4925.44 5246.61 5215.15 4307.28 5046.33 5053.92 5839.13 5090.24 4073.93 5923.5 2240.39 6324.23 4382.74 4651.28 4749.8 4384.42 4493.48 4230.54 6163.38 4566.18 4964.09 3459.9 5856.11 5543.27 4109.88 3327.49 4980.85 5714.58 5110.45 3329.99 4083.97 5208.32 3895.51 6291.51 5882.89 6246.22 4188.32 4100.38 5804.71 5020.12 5727.3 6352.26 3735.44 4907.06 3847.38 4786.6 4645.41 5096.78 5740.84 4727.24 4612.68 6355.42 4362.19 5690.56 5082.6 3693.63 3937.74 6061.47 4093.08 4997.27 4449.22 5628.24 3960.8 5992.26 4923.9 5070.39 4973.78 3947.47 4607.02 3296.27 6673.96 5174.89 5370.52 5538.93 4739.42 3697.96 4899.11 4242.52 4745.45 5356.51 3057.03 4433.59 5163.9 4973.83 5530.87 3320.52 4151.94 5244.78 5478.47 5762.84 6142.37 3982.23 5806.08 4853.39 5365.89 3130.65 4511.54 4613.31 5196.0 5091.68 4204.84 6119.09 4713.25 5069.25 6243.0 5441.96 5048.89 4288.3 3435.9 5774.81 4652.29 4495.87 5344.77 4723.48 4278.07 3818.59 4863.72 5281.28 5495.68 5489.34 6043.3 3912.37 6445.94 4281.49 4310.18 4129.43 5293.9 5927.43 4685.34 5492.26 5119.37 6640.13 5351.39 5243.29 4336.42 3402.32 5004.67 7589.94 5409.33 4466.03 4898.94 4178.15 7531.29 5935.03 6390.78 3991.03 3161.47 6826.57 4788.87 5027.98 3746.31 5346.27 5097.87 7267.18 2631.9 4087.15 4143.08 4758.21 5002.48 5708.14 5952.75 5537.72 4320.28 6342.25 6142.94 6327.9 4220.88 6519.71 3092.35 4583.31 5210.03 6022.17 4306.11 5903.66 5419.37 5985.29 4247.23 4268.65 4733.04 4694.83 5788.66 4755.47 3903.75 4485.99 5475.8 7435.25 5543.46 5498.32 6475.1 2691.29 6255.18 7500.97 4262.82 6332.36 3920.42 5542.14 4218.06 3843.58 4329.05 6082.81 3191.99 5449.18 5367.52 3629.96 4714.54 5030.91 3320.11 5507.24 6851.54 4503.89 5935.47 5313.66 4528.49 5275.32 5512.23 4649.22 5509.42 4354.08 4520.62 5229.48 5475.7 5314.69 6050.81 6022.72 4249.46 4643.31 5527.33 4969.21 6256.02 4277.88 6623.85 8332.24 4931.53 6691.39 4931.38 5110.37 4659.59 4048.37 5664.98 4322.15 4377.07 5101.59 3813.22 5570.3 2651.49 5234.29 4711.62 5349.31 4114.24 2976.22 5394.55 5936.36 4256.43 4016.18 5415.19 5127.16 5526.75 5435.74 4244.99 5560.26 5965.81 6917.52 2330.66 4177.19 5402.21 3691.0 4880.14 4668.71 2845.98 5320.92 7228.46 5102.36 3948.23 5228.18 5787.31 7134.64 6122.55 4602.25 4270.53 5480.13 4501.51 4736.58 4792.73 5513.6 3485.26 4556.36 3240.09 3369.23 3688.8 4548.16 5025.39 5893.5 3817.13 3848.93 3695.36 5076.35 6020.48 5200.05 4645.58 4091.8 5166.79 5670.2 5094.52 2682.24 5417.15 5928.32 4946.74 3950.63 4612.62 4275.57 3619.07 5327.45 2983.99 6185.89 4750.17 3702.37 5660.85 4752.51 3990.25 4989.09 6362.14 6719.88 5978.82 4342.9 2739.94 4790.08 5978.9 4194.5 5191.63 5344.25 6013.14 5379.87 3708.04 4901.41 5264.06 5138.31 4551.24 5358.59 4515.71 6202.55 5023.15 4547.19 3844.9 3963.86 4871.44 6375.99 5273.35 5181.4 6259.23 4662.56 3457.48 3405.98 3688.16 4681.72 5996.33 6631.19 5661.62 4467.04 5626.61 6385.23 2614.4 5817.25 3997.96 4439.35 3460.94 6184.4 3758.07 3587.05 4373.45 6229.37 4982.31 5269.18 4406.1 5034.59 5065.11 6155.31 4553.56 4223.33 4187.56 6308.71 5911.67 5082.47 4840.84 3629.62 4997.27 5344.0 5135.69 4593.7 6045.46 4478.15 4043.57 4138.42 5011.31 5925.6 3979.82 5987.17 4602.86 4581.13 2765.2 3856.59 4746.52 4621.75 4219.07 5413.79 3610.4 6387.01 6338.89 7111.16 6480.17 4564.34 6248.81 3838.56 4853.02 5872.05 5088.44 4998.21 4256.67 6079.11 3931.07 6430.39 7440.72 3949.6 5376.71 4945.39 5703.6 6326.18 4867.08 6648.68 5407.78 6363.92 5061.98 6205.93 5830.72 4923.24 3828.81 5309.98 5289.52 6718.19 5314.85 4305.43 4307.48 3848.54 5450.44 4942.77 5080.18 3927.99 5069.84 5266.5 5329.64 4051.44 4050.9 4716.19 3323.28 4301.06 3456.98 5514.76 6405.76 4290.14 4877.67 4763.45 4150.99 4020.32 5445.87 3815.26 4216.92 3771.48 5198.77 4107.03 5643.58 5681.38 5147.67 5577.04 4292.06 6318.18 4481.53 5006.58 5077.33 5586.81 3948.17 3689.45 3824.16 5572.95 6723.16 5372.61 5402.24 5584.06 3686.21 4519.22 5013.42 6445.22 5651.07 4962.77 6101.92 5323.3 4635.6 4427.28 3082.32 4765.02 4448.13 5070.29 4807.28 4266.03 5075.55 4713.74 4220.03 4084.49 6179.96 6632.99 4537.6 4419.61 7177.44 4082.57 4236.14 4407.87 5282.91 5941.4 6510.17 4263.33 5868.82 4454.63 4066.38 6695.82 6049.55 4241.89 5709.62 3498.2 5835.78 5941.72 4245.72 6562.18 4571.7 4704.72 5908.1 4177.94 4344.58 4742.68 5922.5 3929.19 4271.69 3970.25 3633.87 2775.04 3821.72 4850.01 4138.46 5215.05 4986.77 5137.34 5423.0 5330.45 5125.78 5045.38 3868.18 5350.88 5130.91 4959.34 4948.5 4527.02 5383.07 4247.15 4531.14 4602.85 5210.48 7552.94 3627.55 6239.84 4409.63 5865.39 5370.85 3658.37 3178.54 5949.46 3776.94 5629.39 6157.04 4768.61 2261.36 5280.69 4522.21 6923.84 5449.46 5703.07 6166.29 5147.36 4662.43 6260.79 4563.46 3963.76 5733.62 5169.9 5282.51 4425.84 5331.02 3797.33 7256.35 4871.96 4800.69 4523.88 5742.65 5592.32 3279.1 4978.31 5912.61 5054.74 4099.77 4948.98 4981.9 4414.48 4537.32 5794.24 4127.74 4541.21 3066.13 4302.5 4156.38 6048.7 5896.46 5634.83 5495.84 4164.68 6268.1 3784.5 4862.21 5499.11 5113.21 4502.5 4374.35 5347.48 4810.12 6898.19 6035.6 5526.14 5198.29 4044.45 3975.31 5344.43 5262.19 6070.58 4373.47 6034.41 5452.83 5197.52 5178.99 4790.78 4591.87 6422.84 6552.22 5379.09 7644.38 6004.68 4051.34 6799.4 5278.36 5521.25 5107.23 3661.9 5136.08 5558.68 4010.57 2684.03 5246.47 6191.29 4187.31 5506.19 6719.94 4950.67 5227.59 5453.6 6113.54 4709.05 5294.77 4043.66 5528.53 6553.94 5255.18 3004.16 5460.65 5726.66 4460.92 5945.89 4042.28 4105.55 4863.23 3555.86 4402.67 5381.16 4403.98 4560.84 5565.13 5227.52 6086.96 5163.02 4656.78 4092.24 4729.43 2476.04 5105.16 5991.09 6006.16 6009.88 4678.38 5050.65 5316.75 4827.33 5022.8 7055.53 6133.92 3719.84 4178.4 7034.11 5782.6 6261.42 4011.77 6125.34 5965.78 4527.08 6396.74 2965.79 7099.43 5776.37 6449.45 5315.4 3627.82 4244.9 5678.96 6048.86 4285.32 5490.43 5022.28 4986.51 6169.11 5615.35 4027.09 5172.53 4135.62 5801.99 4860.33 4502.18 5534.94 3685.13 3312.06 5180.76 3418.99 3361.26 4480.95 4993.35 6218.95 5222.16 5533.72 5533.42 4802.32 3678.08 4599.38 5463.48 5518.57 3240.51 5730.33 7422.36 4527.99 5161.01 4298.15 4376.7 5190.61 4628.4 5832.37 6051.83 5409.63 4263.16 3077.84 4630.82 4813.08 6024.75 6799.88 5860.67 4540.86 3062.43 5426.78 4767.78 5235.17 4340.76 6566.1 4435.36 6386.78 6065.22 4996.99 4470.61 6193.35 3701.27 5233.78 5126.91 4562.74 4806.34 5448.61 5776.57 3942.07 5133.97 7443.72 3937.08 5013.67 5513.57 5260.34 5669.65 5729.23 5934.22 3780.23 4359.62 3471.03 5253.55 5011.84 5820.48 5062.71 6946.21 2586.12 5433.8 5975.63 4274.61 5252.34 4287.63 4410.55 3921.08 4190.31 4516.28 5486.68 5100.25 4049.02 4470.4 6894.26 5311.03 5339.38 5255.12 4896.11 4285.66 4238.4 4318.48 6132.95 5266.22 5226.97 5754.18 5132.68 6595.03 4983.39 5366.52 4690.55 5417.8 5146.37 7132.12 4836.16 5151.11 5680.94 5545.46 4543.1 6550.44 8325.01 3764.06 4642.93 4440.81 3973.12 6642.76 5941.9 6109.49 5987.42 5990.52 2967.38 4835.83 4779.5 5652.0 5463.41 5225.33 4421.12 4929.75 4221.28 5254.49 6045.22 4456.39 6649.96 4631.83 4896.39 4384.88 6008.49 6887.27 5653.9 5480.83 7144.24 5683.26 3600.43 5598.74 6600.94 5371.02 4906.82 5131.24 4788.58 6155.1 5206.48 4709.35 6586.45 5876.71 5826.04 5624.49 5339.78 3095.48 3979.26 5188.81 6608.73 3745.84 5696.88 4730.41 5690.26 6057.22 4004.04 4156.2 4289.17 4497.59 6072.45 4470.98 5564.02 6444.77 6314.07 5083.41 7055.42 5443.58 5683.61 5805.86 3836.45 4558.46 5346.68 5296.29 4611.53 2681.29 3872.61 5094.48 5576.92 6408.83 3930.79 4004.35 5365.24 4763.96 5008.63 5293.51 4446.06 4270.74 3450.93 6293.89 5737.75 4558.15 2761.07 3778.02 6552.21 4350.12 5227.02 5670.0 3603.51 4232.16 5300.96 4344.51 3781.77 5581.55 4707.06 5193.01 3474.5 3860.83 5732.27 4523.39 5434.47 5829.22 6917.62 4497.78 5567.93 4243.79 5811.18 5332.65 3764.1 6451.33 5604.35 4159.35 6477.91 4237.98 3091.67 6439.37 4081.97 4614.3 3633.79 4303.19 5514.84 6081.14 4256.57 3914.2 4220.46 5421.53 4607.85 4287.53 6070.3 5046.21 5612.21 5894.61 5196.67 5687.83 5004.23 6496.67 6442.69 5474.8 6320.71 5226.0 4648.04 4373.3 4166.08 4750.78 5029.78 5762.59 4861.06 4298.67 5873.69 5960.66 4962.09 3999.48 5654.31 4203.26 3923.03 4643.85 5082.74 5607.14 5411.85 6915.83 4844.57 4027.46 3901.8 5759.46 5511.88 4512.11 6248.6 5708.99 5687.85 6401.43 5020.71 5997.88 5731.57 5662.55 5839.71 4360.23 3755.95 6234.32 4585.31 5010.04 4586.19 6625.18 5323.91 5097.45 4047.87 4185.61 5099.21 5742.47 4917.99 4367.78 4095.75 3319.67 5222.51 4076.59 6609.84 5164.1 5135.96 3834.43 5658.37 6074.94 5491.37 4250.88 6348.03 3475.67 3783.54 4792.39 5278.56 5146.37 7038.89 4814.12 5631.14 6137.8 5433.65 4442.22 4887.76 5413.31 4008.15 3012.99 6316.56 4332.87 5401.99 6420.81 4715.58 3317.83 5134.39 5580.92 5784.3 5769.98 6088.68 2221.99 3583.21 5937.08 4643.56 5128.57 4135.08 4863.01 4929.14 6000.7 5945.08 5139.5 5604.21 3979.54 7493.3 4814.55 6262.72 5833.06 3527.05 3664.11 6607.87 3365.82 6481.79 4163.5 5374.51 5320.28 4123.6 7092.87 5224.12 3637.61 4569.12 6098.14 4796.58 4472.17 5750.71 5470.77 6222.42 6062.05 4831.47 4735.33 6939.12 3999.94 4413.85 5092.37 6171.13 4020.4 2395.5 4864.22 5941.61 3497.9 5782.48 4933.65 4031.78 6098.1 2435.33 5950.04 4231.83 6333.29 4074.48 3614.96 4477.04 4558.47 3886.68 5703.74 4747.55 5737.92 5464.68 2685.81 3056.7 5591.76 4510.8 5889.35 4394.56 4570.98 5388.78 4275.07 6101.13 5825.38 4573.72 4163.74 3665.95 6969.28 5698.96 5636.4 6471.42 4298.45 5283.8 4428.14 6016.19 6464.15 4124.49 4972.17 4479.11 6685.4 5699.53 4222.77 4850.06 5268.38 5527.23 4805.33 3863.67 5980.95 4013.38 5067.56 3352.35 4343.78 2735.53 5263.3 4909.65 6523.86 4669.06 4811.32 6400.08 4286.49 4743.59 5208.14 4450.7 3532.3 5151.52 5973.33 4347.74 5442.32 5291.9 5067.46 3580.58 5620.74 5356.79 5233.29 4011.37 3169.67 4312.56 4968.03 5204.04 3361.92 5304.13 5944.09 5698.77 5490.58 4863.79 6515.84 4702.06 4143.78 5117.47 5724.64 4538.95 4970.88 5965.15 4763.66 4666.81 4850.14 6739.08 4471.58 5501.93 5463.38 6313.06 5945.21 6345.13 3493.7 4938.74 6470.3 3474.39 4200.03 4719.7 5313.22 5516.95 5563.79 4406.4 4151.76 3905.51 6853.85 4721.02 3546.71 3493.47 4596.75 4254.37 5768.57 3374.08 4188.87 5564.23 3735.24 6574.95 6817.57 6853.04 4745.43 4912.04 5831.96 4539.07 4475.83 5064.79 5480.3 7509.24 4146.81 5896.26 5756.75 4587.67 5951.81 5599.7 3924.14 4296.69 6918.35 6238.32 6804.79 6372.13 5369.5 5404.01 5535.91 3230.13 5714.25 6176.67 5325.96 5412.24 6332.01 5016.02 7044.29 4234.18 7085.01 4049.16 3936.95 6193.08 6069.3 3862.77 5887.01 5116.6 5168.35 3747.03 2783.85 7693.4 4437.07 6184.88 3449.37 5829.32 4396.25 5491.9 6405.0 3763.05 5551.95 5092.24 5369.08 3918.87 4518.04 3101.75 4766.06 4009.62 4874.18 2081.58 2511.46 2775.69 4612.06 4778.82 5657.36 6124.08 5467.84 3306.14 5029.47 4750.58 6710.88 5395.14 3464.83 3967.48 2477.07 4923.41 2990.77 4497.31 4925.63 3163.78 4305.16 4888.6 3293.56 5882.65 7042.12 5078.86 4797.52 4780.2 5163.55 6326.39 6817.32 5960.56 6343.14 6643.85 4020.95 5462.21 5374.98 6049.79 5226.56 5274.19 4050.08 5599.49 4097.57 3436.15 5017.5 5328.22 5711.11 5005.85 4216.17 4575.94 6484.17 4938.72 5956.65 4498.25 5931.77 5108.06 5151.21 5398.64 4222.4 3573.73 4693.52 3624.7 4568.41 5160.59 3420.08 5262.35 4320.42 4691.91 7165.9 4255.34 5344.83 7046.11 4863.97 3427.63 6342.48 4840.44 5093.82 5212.43 5454.12 4834.3 6348.54 4066.57 5642.35 5156.76 6357.47 6101.57 4891.38 4793.65 5955.86 4532.89 2949.12 4533.37 4848.46 5742.09 2779.99 5887.38 4581.37 4920.21 6942.34 5851.61 5478.11 3658.05 6153.94 6836.82 3858.17 4631.99 3477.1 4740.98 3185.39 5388.39 4356.49 3728.18 4326.48 5335.47 4526.81 3994.07 5048.19 4219.94 5907.46 4264.91 4659.16 5549.49 5399.29 5423.42 5789.55 4633.05 6605.86 4901.2 6505.78 5012.5 4785.25 3619.79 6519.43 4270.15 5876.64 3298.2 5053.95 6306.21 6667.68 5926.11 6213.04 5211.38 4721.32 3830.46 5092.28 6413.11 4739.14 4918.77 5274.14 4636.5 4819.73 5100.1 3382.7 3954.91 6471.55 5085.71 5923.4 6263.44 4319.79 5122.63 4863.27 5774.97 6766.43 5862.86 2315.64 4703.08 4390.41 4890.5 6113.95 3981.07 3731.84 4901.07 5452.42 5186.3 5966.61 5325.44 4893.49 4834.87 5102.75 3672.21 5021.88 4597.29 5760.22 5938.17 4200.09 4795.43 5097.95 2928.82 4914.45 4000.43 4698.87 5351.56 4661.03 3984.88 3344.57 5318.53 4732.09 4281.98 5138.2 5783.48 4701.5 4449.98 4504.35 5012.97 4771.65 5589.37 5439.49 6639.64 5216.26 3687.65 4887.52 5478.95 3851.85 6318.23 4058.87 4206.98 5174.75 5932.07 4984.46 5948.71 3856.53 5460.89 6040.74 5260.85 2884.65 5393.65 5807.46 4961.99 4648.21 4393.16 3311.29 3110.13 5526.31 4549.69 6423.81 5030.15 6192.77 3644.78 4078.93 4312.15 5934.82 5128.77 4501.78 7122.87 5633.61 4243.26 6799.23 4153.84 4888.27 6740.71 6487.56 4854.11 2275.45 5971.22 4909.31 6522.59 5711.62 5435.19 4383.56 5461.55 3562.79 7093.13 6865.76 5424.46 5253.37 5235.11 5266.01 5767.9 6515.8 6031.67 5529.42 5384.76 5257.12 4434.19 6138.12 4903.82 4428.78 4965.89 4940.42 5746.28 4371.99 3703.1 4946.42 5187.7 4623.61 5409.66 3561.29 4082.47 3295.83 5551.9 2965.01 6413.02 5203.08 6235.57 3492.19 5412.31 4584.5 4118.84 5548.29 5916.16 3623.87 6934.37 4488.85 3423.15 5010.2 4579.69 3554.48 6123.03 6496.52 3991.42 4997.83 3718.69 4388.63 4514.79 4940.28 2216.82 5885.28 4509.89 6752.75 5269.38 5607.3 5313.12 4811.76 5498.42 4196.37 6448.66 5220.76 3556.79 4453.97 6945.98 6412.67 7001.83 4593.7 4349.13 4036.91 4891.67 5110.11 6818.91 6379.14 3503.65 3634.5 6631.28 6571.31 4392.65 6413.15 6103.11 5048.55 6459.51 4024.31 4955.16 5844.72 3992.97 4147.31 5989.05 4054.22 7228.94 4441.22 5853.89 6551.93 4595.12 4386.8 6484.43 4625.67 3485.54 4458.64 4583.52 6418.11 6015.02 3572.94 4922.49 5585.14 5797.36 7039.98 5001.58 4820.17 4592.15 5119.86 4729.42 5089.26 5084.17 4901.44 4998.22 3776.8 5533.19 5096.43 5417.21 6156.21 6602.43 4990.79 4798.17 5166.79 4953.1 2895.63 4516.53 5818.95 6449.64 3940.49 4857.84 2978.76 2040.66 6464.8 7016.27 4908.49 6622.11 4962.21 4689.15 5089.62 6790.73 5659.95 4590.55 5243.43 6090.91 4741.26 5920.32 4186.6 3701.16 4537.14 4152.85 3867.19 5251.4 4219.78 4963.34 4188.3 5081.78 4459.28 5499.39 4260.92 5644.82 4407.9 4718.54 4440.57 6736.03 5374.07 3087.09 7480.41 4588.7 5163.77 5683.95 3766.55 6027.62 5469.13 5765.42 6098.95 4976.12 4817.16 5453.98 5148.08 6192.0 5578.94 7610.49 6579.31 4286.17 3004.34 3022.6 5323.55 5375.1 3804.5 6486.37 4638.18 4172.6 6083.28 5211.6 5806.31 4745.79 5456.71 3503.41 4908.75 7317.04 3971.08 6204.65 4482.9 6550.4 3766.69 5513.8 4521.75 4027.63 3429.57 5569.2 5420.67 5350.88 4642.74 6735.97 5305.59 5416.45 4330.58 5754.6 3288.01 4904.51 2202.77 6870.97 5751.15 5950.88 4149.55 5474.01 6201.86 7554.58 3380.69 4140.4 3639.44 5446.4 4725.01 5966.75 5510.9 3657.69 4505.28 4883.63 4971.29 3492.83 6280.13 5244.22 5832.29 4438.76 6456.58 4159.81 3886.72 5244.98 5415.45 5792.98 6592.93 6350.71 6104.26 3568.28 5425.98 5583.61 6063.64 5996.66 6479.39 4093.99 5079.22 4122.92 4997.91 3604.14 4452.54 4684.44 4406.05 4749.59 4680.94 5884.9 3685.65 4858.44 3468.42 3685.13 4673.35 5799.69 3876.21 5571.72 4655.16 4916.22 5869.4 6022.7 5297.19 4345.67 4255.85 4453.64 5019.93 5511.6 3885.86 4517.73 5235.29 5177.64 5453.3 4255.31 6116.33 3838.47 4479.94 6250.23 2588.37 5887.15 4435.51 8659.64 7234.66 4055.54 6599.66 4886.12 6419.12 6107.89 4301.61 4233.8 5206.33 4446.84 5530.49 5660.55 4304.41 5653.03 3989.7 4777.03 4157.29 5107.0 6212.15 4246.61 3684.56 6028.09 5327.75 5452.36 4609.02 4896.65 5561.74 5975.23 6100.73 4788.08 4198.94 5470.04 4211.82 6556.26 2628.22 5684.25 5438.92 4901.29 4124.76 5036.98 4244.49 4050.03 4775.04 4120.07 4952.52 5188.53 3840.21 4882.66 6746.66 5410.33 4954.76 3908.56 4844.83 5244.78 3636.15 5652.87 6114.89 5483.7 5135.63 6384.7 4355.83 5952.38 3896.27 5351.86 6056.87 5230.02 5307.35 4342.18 6016.08 5166.89 4731.21 5491.63 5725.37 3868.62 6102.98 5138.33 3743.76 3425.69 6711.21 5510.45 3684.15 4730.14 2606.51 3994.39 3864.92 6006.89 6119.99 4618.73 3814.65 2955.36 3668.93 3965.3 4128.1 4960.64 4983.3 4385.81 4034.05 5690.96 6436.74 2460.79 4456.11 4653.83 4986.71 5096.24 7382.3 4405.42 2995.67 3598.08 4599.81 4022.56 5522.21 5381.54 5698.23 5810.77 5828.35 5089.1 5876.72 2711.19 4028.32 5689.26 5236.43 4992.42 3809.69 4771.13 7051.9 4940.84 5895.77 4680.14 5097.69 4765.72 4732.09 6261.75 5857.79 2908.7 3757.34 4039.91 6415.61 4338.08 4642.66 5276.7 5149.72 5037.06 5660.16 4541.8 5842.56 6134.99 5191.08 5424.88 4062.5 5148.58 4199.45 3548.39 5415.85 5421.64 4207.54 4858.51 3375.28 4603.5 5625.65 4936.96 4214.44 4481.76 3184.64 5378.23 5375.12 5452.78 5065.26 4356.36 3746.36 4892.44 6789.23 4741.28 4215.2 5069.89 2205.51 5361.87 6813.72 6502.97 4783.07 4946.23 4852.58 4532.7 4504.86 3217.67 4473.29 5079.64 996.652 6163.54 5212.37 5965.58 6003.78 3352.34 5058.51 4607.18 3899.7 2403.72 7200.89 4813.33 4802.98 4833.55 3646.95 4081.34 7224.99 6334.53 5377.3