# vtk DataFile Version 2.0
Time step 8
ASCII
DATASET UNSTRUCTURED_GRID
POINTS 5000 float
46930.5 473629.0 0
55033.4 471425.0 0
171834.0 472712.0 0
177746.0 472756.0 0
182952.0 471953.0 0
278873.0 472839.0 0
297322.0 472818.0 0
372009.0 471361.0 0
394014.0 472743.0 0
403606.0 471799.0 0
422052.0 472191.0 0
431374.0 471454.0 0
442648.0 470108.0 0
450984.0 472613.0 0
36007.4 480851.0 0
42602.7 476720.0 0
47238.8 478066.0 0
50656.9 475457.0 0
50815.2 471375.0 0
57083.5 475119.0 0
59929.9 471593.0 0
64679.5 474496.0 0
69785.9 475177.0 0
73961.2 473271.0 0
78466.2 474718.0 0
83263.5 474356.0 0
87398.2 473681.0 0
92500.0 474509.0 0
97208.1 474530.0 0
101307.0 474446.0 0
105965.0 473875.0 0
111928.0 474343.0 0
117841.0 474501.0 0
123320.0 474578.0 0
128334.0 474697.0 0
133416.0 473949.0 0
138112.0 474630.0 0
142500.0 474552.0 0
147500.0 474486.0 0
152501.0 474456.0 0
157579.0 474114.0 0
162541.0 474277.0 0
167027.0 473879.0 0
183477.0 477028.0 0
187418.0 473790.0 0
192500.0 474904.0 0
196122.0 474111.0 0
201765.0 473450.0 0
207659.0 474191.0 0
213003.0 473615.0 0
218136.0 474613.0 0
222488.0 474622.0 0
225835.0 474010.0 0
230427.0 473827.0 0
235813.0 474759.0 0
241171.0 473460.0 0
246495.0 475477.0 0
252658.0 473417.0 0
259020.0 473951.0 0
263755.0 474977.0 0
268739.0 473967.0 0
273936.0 474219.0 0
282033.0 476160.0 0
286331.0 474475.0 0
291721.0 474952.0 0
303642.0 473693.0 0
307754.0 476212.0 0
312122.0 474010.0 0
317923.0 474643.0 0
323239.0 474589.0 0
327578.0 474796.0 0
332202.0 474399.0 0
337218.0 474111.0 0
341012.0 475327.0 0
345899.0 473696.0 0
350712.0 475551.0 0
355312.0 474689.0 0
361834.0 473243.0 0
367943.0 474660.0 0
377034.0 473308.0 0
382617.0 474150.0 0
378849.0 477841.0 0
388131.0 473427.0 0
399149.0 474534.0 0
408632.0 472563.0 0
412488.0 474507.0 0
408244.0 476817.0 0
417500.0 474520.0 0
421725.0 476844.0 0
426621.0 473626.0 0
431566.0 477233.0 0
435383.0 474120.0 0
439275.0 472457.0 0
439029.0 476900.0 0
446276.0 472467.0 0
442650.0 474609.0 0
448712.0 476379.0 0
444959.0 478060.0 0
453637.0 476749.0 0
458666.0 477790.0 0
463087.0 479735.0 0
25470.8 486398.0 0
28094.7 484432.0 0
31723.8 483201.0 0
35125.9 485832.0 0
41030.3 482074.0 0
47143.8 483051.0 0
51280.4 479754.0 0
53899.6 476792.0 0
55783.8 480126.0 0
60437.6 478423.0 0
65127.6 479457.0 0
68939.2 479160.0 0
73456.7 478697.0 0
77708.6 479677.0 0
81970.3 478918.0 0
87913.7 478435.0 0
92500.0 479649.0 0
97169.2 479301.0 0
102467.0 479182.0 0
108253.0 478468.0 0
112500.0 479585.0 0
117500.0 479667.0 0
122500.0 479589.0 0
127738.0 479101.0 0
132501.0 479483.0 0
137520.0 479498.0 0
142771.0 478978.0 0
146998.0 479332.0 0
152008.0 479206.0 0
156939.0 478178.0 0
156287.0 482733.0 0
161370.0 479014.0 0
166584.0 478556.0 0
172917.0 478292.0 0
178320.0 478175.0 0
182226.0 482189.0 0
188548.0 478256.0 0
193523.0 479062.0 0
198211.0 478495.0 0
203928.0 479073.0 0
213695.0 478166.0 0
209361.0 479332.0 0
213289.0 482973.0 0
217644.0 479668.0 0
222080.0 479556.0 0
226860.0 478240.0 0
232239.0 479180.0 0
237753.0 479986.0 0
243351.0 479931.0 0
248405.0 479572.0 0
252623.0 480012.0 0
257212.0 478581.0 0
262328.0 479159.0 0
267183.0 478848.0 0
271685.0 478176.0 0
276939.0 478572.0 0
279887.0 482530.0 0
282807.0 479852.0 0
287500.0 479563.0 0
292817.0 479468.0 0
298207.0 478335.0 0
303060.0 479357.0 0
307480.0 479506.0 0
312501.0 479758.0 0
317499.0 479521.0 0
322473.0 479064.0 0
327500.0 479543.0 0
332500.0 479616.0 0
337686.0 479003.0 0
341396.0 482576.0 0
343280.0 478368.0 0
347701.0 478865.0 0
352658.0 479458.0 0
356028.0 482933.0 0
361500.0 478558.0 0
357827.0 479096.0 0
365178.0 478384.0 0
366504.0 482481.0 0
372945.0 478084.0 0
382060.0 478897.0 0
384279.0 482319.0 0
388270.0 478520.0 0
393457.0 478807.0 0
398038.0 479256.0 0
402940.0 477991.0 0
412680.0 478462.0 0
408711.0 482473.0 0
417331.0 479087.0 0
426759.0 478612.0 0
423048.0 481854.0 0
435420.0 479628.0 0
439484.0 482061.0 0
445057.0 483014.0 0
450383.0 480864.0 0
455606.0 481553.0 0
460022.0 482465.0 0
464810.0 484069.0 0
469966.0 484271.0 0
18124.5 491174.0 0
22421.1 489426.0 0
30014.1 488302.0 0
34448.6 490159.0 0
39600.8 488406.0 0
43402.9 485493.0 0
45256.6 488323.0 0
49481.9 487093.0 0
53147.5 484189.0 0
56157.1 487543.0 0
58951.6 483941.0 0
64356.0 483960.0 0
69852.5 483894.0 0
75790.2 483946.0 0
79749.6 485776.0 0
82824.6 483557.0 0
87778.7 484021.0 0
93118.0 484519.0 0
98060.3 483739.0 0
103040.0 484995.0 0
108029.0 483247.0 0
112500.0 484505.0 0
116779.0 484345.0 0
120879.0 484139.0 0
125914.0 483483.0 0
123524.0 488110.0 0
131187.0 485238.0 0
136472.0 485137.0 0
141033.0 483118.0 0
146349.0 484219.0 0
151869.0 485839.0 0
161737.0 484704.0 0
166549.0 486548.0 0
170045.0 483137.0 0
176341.0 483965.0 0
182230.0 487666.0 0
188093.0 484424.0 0
194300.0 484075.0 0
200013.0 483570.0 0
204282.0 484605.0 0
208095.0 484170.0 0
217709.0 484617.0 0
222592.0 483831.0 0
222191.0 488101.0 0
226907.0 483238.0 0
232481.0 484644.0 0
237505.0 484411.0 0
237676.0 487759.0 0
241836.0 485049.0 0
246920.0 483689.0 0
251873.0 484926.0 0
257660.0 483334.0 0
255924.0 488097.0 0
262647.0 483942.0 0
260385.0 487749.0 0
267414.0 483314.0 0
266410.0 488022.0 0
272970.0 483454.0 0
278355.0 488028.0 0
283579.0 484790.0 0
287240.0 484869.0 0
288750.0 488077.0 0
291071.0 483836.0 0
296782.0 483405.0 0
302268.0 484602.0 0
307722.0 483936.0 0
313224.0 485052.0 0
318226.0 484183.0 0
322511.0 483068.0 0
326836.0 484885.0 0
336508.0 483672.0 0
331879.0 484745.0 0
339800.0 487978.0 0
346809.0 483253.0 0
351876.0 484299.0 0
361242.0 483256.0 0
357370.0 486882.0 0
366623.0 487170.0 0
371103.0 484268.0 0
377639.0 483748.0 0
382683.0 487815.0 0
392135.0 483578.0 0
388186.0 485587.0 0
396908.0 483557.0 0
402502.0 484201.0 0
407494.0 487765.0 0
413675.0 485195.0 0
418407.0 483999.0 0
425870.0 485478.0 0
430074.0 482805.0 0
434955.0 483882.0 0
441288.0 486832.0 0
445352.0 487790.0 0
449908.0 486359.0 0
454103.0 485006.0 0
457808.0 485435.0 0
461036.0 487105.0 0
459490.0 489926.0 0
464316.0 488844.0 0
468731.0 488350.0 0
474341.0 487883.0 0
479261.0 489785.0 0
7924.39 497625.0 0
11184.8 495656.0 0
14649.6 493626.0 0
18612.2 495817.0 0
22951.7 493836.0 0
26474.4 491347.0 0
26937.4 494940.0 0
31164.9 493543.0 0
37033.2 493922.0 0
42925.1 492823.0 0
48374.1 492228.0 0
52581.3 489166.0 0
56144.3 491917.0 0
60341.7 489179.0 0
64614.0 488416.0 0
68937.0 489640.0 0
73349.5 488976.0 0
77758.0 489077.0 0
82779.6 488987.0 0
87936.1 489193.0 0
92779.0 490125.0 0
98147.9 489088.0 0
103066.0 490667.0 0
107886.0 488741.0 0
113236.0 488864.0 0
118256.0 488819.0 0
127500.0 489664.0 0
132683.0 490076.0 0
137740.0 489059.0 0
142519.0 489251.0 0
147986.0 488846.0 0
147028.0 493129.0 0
156816.0 488213.0 0
153362.0 490520.0 0
160420.0 489506.0 0
164436.0 490240.0 0
167075.0 493089.0 0
170839.0 489167.0 0
177033.0 490531.0 0
186634.0 490045.0 0
191650.0 489570.0 0
197208.0 488836.0 0
203030.0 488743.0 0
208745.0 490490.0 0
214378.0 488631.0 0
218774.0 489749.0 0
216370.0 493232.0 0
227667.0 488764.0 0
234164.0 489106.0 0
237940.0 492487.0 0
241955.0 489639.0 0
246442.0 488885.0 0
251559.0 490177.0 0
262658.0 491338.0 0
271797.0 489740.0 0
284343.0 489565.0 0
292973.0 489790.0 0
298928.0 489725.0 0
303967.0 489883.0 0
307500.0 489707.0 0
312195.0 489520.0 0
316245.0 488916.0 0
321068.0 488451.0 0
325876.0 489922.0 0
329925.0 488572.0 0
334407.0 490513.0 0
346080.0 489508.0 0
352826.0 489871.0 0
361698.0 489255.0 0
367083.0 492075.0 0
371855.0 489890.0 0
377787.0 491209.0 0
387119.0 489733.0 0
392748.0 490238.0 0
399158.0 489306.0 0
402647.0 493287.0 0
403942.0 489331.0 0
407622.0 492827.0 0
411662.0 489614.0 0
416197.0 488950.0 0
420198.0 490964.0 0
424341.0 489285.0 0
429666.0 489063.0 0
434761.0 487954.0 0
438403.0 490681.0 0
444025.0 492757.0 0
450007.0 491717.0 0
455049.0 489389.0 0
457967.0 493836.0 0
462682.0 492958.0 0
466981.0 491802.0 0
467403.0 496701.0 0
471409.0 492602.0 0
472795.0 497344.0 0
476935.0 493975.0 0
483143.0 493107.0 0
488096.0 496531.0 0
4388.59 499771.0 0
8488.53 502162.0 0
14037.8 499304.0 0
18982.1 500302.0 0
23621.3 498747.0 0
29282.8 498595.0 0
33507.5 497407.0 0
36834.4 498672.0 0
40995.3 497482.0 0
45542.4 496321.0 0
52356.4 495863.0 0
48365.0 499160.0 0
57033.1 497196.0 0
60204.0 494203.0 0
64925.1 493117.0 0
69827.5 494741.0 0
74165.7 493020.0 0
73383.0 497291.0 0
78895.8 494209.0 0
84130.7 493967.0 0
88907.3 494014.0 0
92996.7 494616.0 0
97397.9 494462.0 0
101364.0 494617.0 0
106035.0 494354.0 0
111428.0 493465.0 0
111245.0 498302.0 0
116746.0 494073.0 0
122178.0 493285.0 0
126966.0 493979.0 0
131271.0 494475.0 0
136613.0 493617.0 0
142236.0 494944.0 0
151798.0 495101.0 0
157924.0 494048.0 0
163701.0 494728.0 0
170997.0 495164.0 0
176729.0 496809.0 0
182886.0 494494.0 0
193643.0 493679.0 0
189149.0 494456.0 0
198217.0 494706.0 0
203149.0 493841.0 0
202570.0 498345.0 0
207349.0 495860.0 0
212135.0 494720.0 0
221228.0 493391.0 0
226320.0 495296.0 0
232018.0 493702.0 0
236162.0 497495.0 0
242882.0 494208.0 0
248082.0 494014.0 0
252926.0 494249.0 0
257756.0 493280.0 0
262885.0 496909.0 0
267640.0 493909.0 0
272717.0 495616.0 0
278476.0 494705.0 0
283566.0 494149.0 0
282092.0 498079.0 0
288828.0 493396.0 0
293481.0 494369.0 0
297494.0 495759.0 0
302639.0 494189.0 0
301883.0 498107.0 0
307206.0 494546.0 0
312031.0 494251.0 0
317095.0 493325.0 0
322422.0 494011.0 0
331091.0 494126.0 0
327287.0 494761.0 0
341413.0 493426.0 0
337062.0 494480.0 0
346849.0 495368.0 0
351766.0 495562.0 0
355709.0 497735.0 0
357858.0 493381.0 0
362923.0 494242.0 0
370223.0 495428.0 0
374571.0 495497.0 0
383150.0 493864.0 0
383258.0 498000.0 0
387079.0 498304.0 0
388021.0 493855.0 0
391960.0 496630.0 0
397623.0 495306.0 0
411107.0 497544.0 0
413594.0 493320.0 0
416704.0 494752.0 0
420802.0 495840.0 0
425240.0 493201.0 0
425559.0 497870.0 0
428727.0 494324.0 0
433740.0 493743.0 0
439018.0 496240.0 0
448388.0 496514.0 0
453388.0 495950.0 0
458270.0 498945.0 0
462393.0 497803.0 0
465359.0 501949.0 0
474184.0 501428.0 0
477668.0 499259.0 0
[...]
POINT_DATA 5000
SCALARS Radius float 1
LOOKUP_TABLE default
5113.21 4478.15 6044.04 5415.48 5120.0 5580.89 6810.52 5529.52 6756.95 6324.23 4270.53 5191.63 4216.92 5634.83 5820.48 5782.6 4862.21 3929.19 4107.03 4043.57 5379.87 5925.6 4501.51 4792.73 4736.58 4931.38 3485.26 4329.05 4151.94 4049.23 5337.48 6124.89 5708.81 5252.48 4780.03 5495.39 3996.0 3856.1 4665.12 3383.4 4133.88 4834.9 3850.77 5085.53 3863.18 2356.98 4998.37 6182.6 5492.18 5258.36 5061.3 3642.12 3163.97 5812.43 5122.66 5906.14 5484.19 7513.1 5254.28 4436.4 5733.48 4672.91 3588.44 5645.7 5176.86 5840.26 3672.51 6110.27 5561.06 5073.35 3615.22 5670.04 4380.59 3589.27 6716.79 3607.45 5759.91 7613.27 4951.03 5255.32 6037.08 4523.7 5096.78 4129.43 3843.58 3320.52 4727.24 4194.5 5082.47 5344.25 5445.87 4593.7 4150.99 4704.72 4742.68 4177.94 4344.58 4571.7 5495.84 6268.1 4861.06 3979.26 3471.03 5253.55 5011.84 7034.11 6261.42 4502.5 3771.48 4271.69 5681.38 4138.42 3708.04 5513.6 3240.09 4556.36 6082.81 3191.99 4685.34 5601.05 4929.8 3586.91 3103.0 3554.9 4015.92 5542.21 4487.31 3936.02 4044.71 5980.74 4094.62 5109.54 4927.02 5546.39 5325.36 5484.83 5538.89 5351.6 4730.36 4715.55 5867.73 3951.75 5013.56 5701.86 4499.64 4375.68 5542.27 5054.98 6030.06 5170.02 3557.27 4927.31 4688.68 4402.52 4517.56 4182.53 5903.42 3968.64 3955.56 3761.32 4118.05 4366.19 5553.16 2938.66 4940.78 4231.61 4008.92 3942.53 3379.84 4827.82 5227.21 3997.1 3260.67 5123.52 4091.31 3038.33 4392.68 4333.2 4295.38 7199.21 2240.39 5923.5 5091.39 5293.9 3912.37 6142.94 4602.25 6691.39 4790.08 4763.45 5344.0 3815.26 5908.1 6048.7 5896.46 5022.8 3784.5 6481.79 5320.28 4298.67 5960.66 6608.73 4359.62 6946.21 2586.12 5433.8 4011.77 5499.11 3633.87 5922.5 5198.77 5987.17 6013.14 2765.2 4901.41 5110.37 5664.98 4382.74 5927.43 4651.28 4384.42 3693.63 4516.43 5481.78 4948.92 5637.59 4937.14 5043.05 5816.2 5693.81 6483.19 3829.13 5945.65 6759.9 5418.62 7021.47 5416.38 6059.59 2720.68 4955.55 3563.63 4238.81 4345.55 4468.59 5885.03 2837.58 3871.88 5325.02 5200.76 5017.13 4862.64 5279.39 5185.34 3673.74 4432.58 5205.43 6684.56 7447.37 4688.67 2635.86 4385.06 5292.64 6166.5 5065.13 5936.02 5305.17 4861.08 4003.05 5390.22 4805.87 4712.33 6038.78 5697.78 4667.36 6372.62 4254.17 5090.24 5615.42 7565.34 5530.87 4612.68 4281.49 4973.83 6342.25 4187.56 4840.84 5135.69 4020.32 6045.46 4245.72 4541.21 4164.68 6133.92 3719.84 4178.4 3780.23 3095.48 4166.08 5374.51 6739.08 4797.52 4471.58 4569.12 4796.58 5873.69 4962.09 3999.48 4203.26 5188.81 6057.22 5062.71 6125.34 4527.08 5347.48 4850.01 3970.25 5147.67 3979.82 5011.31 5138.31 5264.06 4659.59 6327.9 4048.37 6355.42 4362.19 5690.56 3115.91 4493.48 3307.12 5924.89 4002.16 4778.34 4174.52 4138.16 3486.22 4684.5 3091.3 6230.49 6458.82 4601.27 5493.32 5740.68 5926.61 6051.14 5836.15 3261.21 4195.44 6704.06 3653.41 5600.93 3856.01 5246.2 4390.66 4827.23 6116.18 4924.6 4733.32 7184.19 2899.43 2924.37 3867.67 4290.3 5399.73 4660.72 3888.21 5891.05 6902.81 6644.76 5629.19 4786.6 5740.84 6445.94 4310.18 7134.64 5978.9 4716.19 3629.62 5514.76 4997.27 4301.06 4877.67 4290.14 6562.18 4156.38 5316.75 7055.53 5669.65 5934.22 5624.49 5762.59 4123.6 7092.87 5224.12 4850.14 7042.12 6326.39 6817.32 4319.79 6643.85 6098.14 4472.17 6222.42 5654.31 4730.41 3745.84 5690.26 4156.2 5965.78 4497.59 4374.35 4810.12 5643.58 5215.05 4292.06 3821.72 5577.04 5006.58 4602.86 3688.8 4548.16 3369.23 5449.18 5492.26 4220.88 5244.78 5762.84 3937.74 4749.8 6084.86 5478.92 5551.36 6894.71 4414.54 5789.98 6138.47 7054.71 3641.64 5489.43 5747.75 4277.89 4727.62 5054.25 4796.33 5539.32 5360.19 6496.85 4794.96 4874.39 5541.59 4124.71 5728.85 6337.56 4911.47 5803.39 5863.59 4381.97 4024.3 6257.19 3255.82 5242.73 2812.98 4737.14 4065.69 5603.15 4695.45 6052.7 3921.18 3798.62 5308.1 3666.57 4907.89 4937.02 4073.93 5655.21 4645.41 4433.59 4320.28 5542.14 2739.94 4931.53 4218.06 5480.13 6308.71 6405.76 3456.98 3498.2 5105.16 3066.13 5448.61 4302.5 6006.16 6009.88 5013.67 5826.04 5339.78 4143.78 4970.88 4666.81 5163.55 4819.73 3382.7 3954.91 6471.55 2965.01 5499.39 5644.82 3637.61 5501.93 5463.38 5945.21 4938.74 5696.88 5607.14 3923.03 5975.63 5252.34 6396.74 4138.46 4274.61 2775.04 4986.77 6898.19 6318.18 5586.81 3948.17 4551.24 4621.75 5358.59 4515.71 6519.71 6640.13 5082.6 5810.84 4230.54 5094.44 3748.24 4655.49 4467.94 4933.21 4850.81 6038.14 2540.31 6029.66 5527.54 5573.7 5697.4 4270.95 4055.8 7325.81 5280.17 6425.26 5143.58 6186.19 4839.34 5083.08 2980.99 6834.49 5525.39 3998.5 5938.34 5380.13 6394.38 5555.28 5169.36 4686.65 5834.74 5556.96 5788.23 5581.75 6392.01 3599.45 6730.19 4907.06 3735.44 5163.9 6043.3 5952.75 6332.36 6122.55 6155.31 4223.33 5911.67 3323.28 6695.82 5835.78 5794.24 4678.38 5050.65 4827.33 5206.48 5513.57 5729.23 5226.0 3365.82 4538.95 5965.15 4763.66 4780.2 4636.5 4940.42 3703.1 4946.42 5923.4 5085.71 6116.33 6343.14 5774.97 5462.21 5750.71 5470.77 4831.47 4643.85 4004.04 6062.05 4289.17 5564.02 2965.79 4410.55 6035.6 5137.34 4481.53 5330.45 4581.13 3856.59 3610.4 4219.07 5413.79 6387.01 5367.52 3092.35 4322.15 5210.03 4714.54 3629.96 5478.47 5351.39 6142.37 6061.47 5375.47 4566.18 4723.12 5120.49 5201.36 5262.61 6302.8 5409.61 6038.2 4005.44 5206.78 5555.88 6732.43 5028.96 3866.16 6362.12 4484.76 4840.01 4511.82 5611.2 7933.0 4455.12 5173.87 4894.16 5711.87 5118.27 4941.22 5932.23 5791.61 3369.13 4479.66 5367.2 3043.85 5461.13 4726.76 5839.13 5495.68 5489.34 5002.48 5708.14 5537.72 3920.42 8332.24 4553.56 5329.64 6049.55 5709.62 4127.74 2476.04 5133.97 3942.07 7443.72 3937.08 5371.02 5260.34 4709.35 6586.45 4373.3 4750.78 4163.5 5724.64 5078.86 5100.1 6090.91 3561.29 4963.34 5019.93 3295.83 5081.78 4260.92 6263.44 5960.56 4118.84 4020.95 6313.06 3474.39 6470.3 4200.03 5082.74 6915.83 6072.45 7099.43 5526.14 5198.29 5423.0 5077.33 4746.52 6338.89 6202.55 5025.39 5893.5 4547.19 3320.11 5030.91 6022.17 5119.37 3982.23 6163.38 3459.9 4853.39 4964.09 4809.42 5024.9 4306.53 5659.17 5094.81 5972.06 5713.22 5861.71 4359.04 3183.98 3794.63 4524.28 3778.1 5152.36 5826.64 4220.65 6820.42 4816.2 6321.41 4896.52 4751.02 3372.79 5184.56 5282.64 4715.72 4669.66 4808.52 5046.33 4764.96 5607.24 5053.92 6352.26 3847.38 3818.59 4863.72 4143.08 6623.85 4262.82 5102.36 4342.9 5065.11 5069.84 4051.44 4241.89 5054.74 5941.72 5991.09 5126.91 6600.94 4788.58 6155.1 5876.71 6262.72 5029.78 6515.84 4888.6 2990.77 4739.14 4918.77 4371.99 4219.78 3885.86 5235.29 4459.28 4479.94 6250.23 6413.02 4863.27 5862.86 6049.79 3493.7 5374.98 4719.7 6939.12 4735.33 5411.85 5092.37 6444.77 6314.07 4287.63 5315.4 6449.45 3975.31 3689.45 3824.16 5125.78 5572.95 3868.18 4373.47 6723.16 5584.06 7111.16 3817.13 5507.24 6851.54 4583.31 4503.89 5806.08 5243.29 4997.27 4093.08 4449.22 5543.27 4717.05 5287.2 6135.57 5998.38 4312.67 5423.8 4270.24 4989.15 5017.78 5015.69 6175.81 4727.24 6677.09 4305.57 6959.81 4829.35 5201.67 4424.7 4089.76 4754.05 5526.55 3192.41 6084.93 5215.15 4987.87 3315.57 5804.71 5020.12 5727.3 4242.52 5281.28 5356.51 4277.88 3057.03 4087.15 7500.97 3948.23 5228.18 5787.31 3927.99 5868.82 4050.9 4978.31 4099.77 4981.9 4656.78 4537.32 4906.82 3600.43 5131.24 5004.23 5196.67 6496.67 5474.8 3664.11 6607.87 5117.47 4925.63 5882.65 4434.19 5187.7 4623.61 4188.3 6261.75 5177.64 4255.31 5453.3 4407.9 3492.19 4584.5 5122.63 4703.08 6345.13 5274.19 5516.95 4406.4 4413.85 4844.57 3999.94 4027.46 4470.98 5776.37 4516.28 3921.08 4190.31 3627.82 4044.45 5262.19 5344.43 5045.38 5350.88 5372.61 3686.21 5402.24 6480.17 5023.15 4377.07 5101.59 3813.22 5570.3 4336.42 4306.11 7589.94 3130.65 5628.24 5856.11 3327.49 4109.88 4234.94 4562.29 5013.13 5080.66 3417.33 4926.42 4164.13 4642.34 4520.1 4947.52 5153.74 5874.89 4293.03 5813.4 4389.21 3791.79 4128.98 4925.44 6246.22 4951.47 4307.28 3697.96 4739.42 4723.48 5538.93 4899.11 2631.9 4745.45 6255.18 4668.71 4758.21 5269.18 7228.46 6362.14 6719.88 5978.82 5266.5 4523.88 4066.38 4403.98 4948.98 5227.52 4414.48 4729.43 4092.24 5163.02 7144.24 5598.74 5687.83 6442.69 6320.71 4648.04 3464.83 4721.32 3163.78 4305.16 3293.56 5274.14 4903.82 5746.28 4082.47 5511.6 4338.08 4378.3 6134.99 4094.73 4989.56 4718.54 4440.57 5548.29 6766.43 2315.64 5916.16 4390.41 5226.56 5599.49 5313.22 4097.57 3905.51 5017.5 4864.22 3901.8 5759.46 5083.41 5678.96 4244.9 6048.86 6070.58 4285.32 6034.41 5452.83 5130.91 4948.5 4519.22 6445.22 3844.9 3695.36 4564.34 3963.86 4871.44 3848.93 5076.35 6020.48 5935.47 3402.32 5903.66 4528.49 5004.67 5365.89 5992.26 3960.8 4511.54 5070.39 4980.85 5714.58 5110.45 5208.32 5248.77 3296.27 4083.97 4713.25 4607.02 3895.51 4528.09 4165.81 5441.96 6291.51 5174.89 5882.89 4188.32 5246.61 4100.38 3746.31 5344.77 5027.98 5097.87 4278.07 7267.18 6256.02 5320.92 4305.43 4406.1 5034.59 4942.77 4263.33 5080.18 4454.63 5912.61 3279.1 6193.35 4560.84 6086.96 5233.78 5776.57 4562.74 5683.26 5139.5 7493.3 4814.55 3527.05 5698.77 2477.07 6413.11 5529.42 5092.28 4965.89 5659.95 4152.85 2908.7 4453.64 4517.73 5469.47 5660.16 3838.47 2588.37 6736.03 6235.57 3623.87 3087.09 6934.37 6113.95 4050.08 5328.22 5563.79 6171.13 5511.88 4512.11 7055.42 5486.68 5100.25 5490.43 5022.28 5197.52 4959.34 5383.07 4527.02 4531.14 5013.42 3838.56 6552.22 5651.07 6375.99 5200.05 5234.29 5313.66 5419.37 5275.32 4466.03 5409.33 4898.94 5196.0 4923.9 4973.78 3329.99 3947.47 5091.68 4204.84 6243.0 6673.96 3556.85 3161.47 3435.9 6390.78 4288.3 5370.52 4788.87 4652.29 4495.87 5774.81 6022.72 5498.32 5527.33 5346.27 6475.1 4969.21 2691.29 2845.98 4880.14 5289.52 5314.85 5941.4 5450.44 6510.17 5742.65 5592.32 5381.16 5565.13 4470.61 3701.27 5653.9 5046.21 4929.14 5894.61 3979.54 5304.13 5944.09 5833.06 4923.41 4497.31 5384.76 6138.12 5257.12 4428.78 5243.43 4537.14 5551.9 3757.34 6415.61 4687.64 5329.59 4419.71 4888.12 5037.06 4541.8 5175.29 5842.56 5887.15 5412.31 7480.41 3423.15 4890.5 3981.07 5452.42 5186.3 6853.85 3497.9 2395.5 5941.61 5782.48 6248.6 3836.45 5683.61 5805.86 6894.26 4986.51 5339.38 5178.99 5615.35 4591.87 4790.78 6422.84 4247.15 4502.18 4602.85 6248.81 5872.05 5273.35 4091.8 4645.58 2651.49 5181.4 5512.23 5670.2 5985.29 4247.23 4178.15 4613.31 4733.04 6119.09 5788.66 7531.29 5069.25 3903.75 5048.89 4755.47 5935.03 3991.03 5475.8 5314.69 7435.25 6826.57 4249.46 5965.81 3702.37 4643.31 6917.52 5402.21 4989.09 6718.19 4982.31 4307.48 3848.54 4425.84 5331.02 4871.96 4863.23 4402.67 4631.83 4996.99 4384.88 6887.27 6008.49 4220.46 4806.34 4287.53 5612.21 5945.08 3169.67 4968.03 3306.14 5490.58 5395.14 4863.79 4702.06 3830.46 6031.67 4689.15 4655.16 5409.66 4345.67 3867.19 4765.72 4642.66 4039.91 4752.14 5276.7 6119.63 4950.97 5512.16 3197.63 4863.96 5191.08 5203.08 5374.07 5163.77 4588.7 4488.85 3731.84 4579.69 4901.07 3554.48 6496.52 3436.15 5005.85 4151.76 4020.4 3493.47 4721.02 4596.75 4933.65 5443.58 4558.46 4049.02 4470.4 5311.03 5255.12 6169.11 4027.09 5801.99 5379.09 5210.48 4962.77 4853.02 6259.23 5088.44 4998.21 4711.62 4114.24 4268.65 5349.31 4694.83 4649.22 5509.42 4354.08 5094.52 4256.43 5936.36 2682.24 4520.62 5229.48 5475.7 4485.99 5127.16 5435.74 4244.99 6050.81 5543.46 6185.89 3997.96 4750.17 5660.85 3460.94 2330.66 3990.25 4177.19 3691.0 4752.51 3587.05 6229.37 4236.14 4407.87 5282.91 3797.33 7256.35 4800.69 6566.1 3555.86 6386.78 4456.39 4896.39 6081.14 5480.83 4607.85 5128.57 6000.7 5604.21 3361.92 4750.58 6710.88 3967.48 5235.11 6213.04 6622.11 3685.13 4590.55 6790.73 5251.4 5097.69 5857.79 6543.13 5149.72 5036.58 5464.25 5411.02 4752.9 4287.16 5199.44 4062.5 4435.51 5683.95 3766.55 6027.62 5010.2 4216.17 6484.17 4938.72 4254.37 3374.08 4031.78 6098.1 5708.99 5687.85 5346.68 5296.29 4611.53 4285.66 4896.11 5094.48 5172.53 3872.61 4135.62 5534.94 7644.38 7552.94 6101.92 5323.3 4635.6 4662.56 5166.79 2976.22 3405.98 5394.55 4681.72 4946.74 5996.33 5928.32 5415.19 4612.62 4016.18 3619.07 5526.75 4275.57 6385.23 5327.45 5560.26 6363.92 6205.93 4439.35 5830.72 6184.4 3758.07 3828.81 4373.45 4082.57 5733.62 5169.9 5282.51 4460.92 5945.89 4042.28 4105.55 4421.12 4340.76 5254.49 6065.22 4221.28 4303.19 5514.84 3633.79 5421.53 3914.2 5937.08 6070.3 4135.08 5233.29 4778.82 4312.56 4612.06 5204.04 5053.95 5926.11 6667.68 5767.9 5211.38 5089.62 5869.4 4741.26 5920.32 4255.85 4732.09 3988.3 6136.49 4356.25 4216.95 5776.96 5486.48 5301.47 4617.55 3645.12 5424.88 5415.85 8659.64 5469.13 4233.8 5765.42 6123.03 5966.61 5711.11 4575.94 5021.88 3546.71 5956.65 5768.57 5564.23 5950.04 4231.83 2435.33 6401.43 4074.48 4558.47 5020.71 2681.29 5997.88 5839.71 4238.4 5576.92 4318.48 6132.95 5266.22 3930.79 4860.33 3685.13 6004.68 4051.34 3361.26 6799.4 3627.55 6239.84 4256.67 5865.39 3457.48 4427.28 3931.07 6079.11 6430.39 5417.15 3688.16 3949.6 4945.39 6326.18 3950.63 5661.62 6631.19 6648.68 4467.04 5626.61 5817.25 2983.99 2614.4 5061.98 4537.6 4923.24 4419.61 7177.44 5309.98 6553.94 5255.18 5460.65 3004.16 4767.78 5235.17 5225.33 4779.5 4929.75 4435.36 6649.96 5134.39 5784.3 4256.57 5442.32 6088.68 4643.56 5620.74 5657.36 6124.08 5467.84 5266.01 5253.37 6515.8 3685.65 3701.16 4916.22 4186.6 5895.77 5750.07 4757.74 6045.67 4209.49 5742.74 3821.94 4244.21 4947.24 3875.05 3540.11 6200.54 5148.58 4652.01 4199.45 7234.66 6599.66 4055.54 6098.95 4997.83 4893.49 5325.44 5102.75 4597.29 4200.09 4498.25 5931.77 4188.87 5151.21 3735.24 6574.95 6333.29 4477.04 5731.57 6408.83 5365.24 5226.97 4004.35 4763.96 5754.18 3312.06 5180.76 3418.99 4480.95 5278.36 4409.63 5521.25 3661.9 3082.32 5370.85 5949.46 3658.37 7440.72 5376.71 5703.6 4807.28 4867.08 4266.03 5280.69 4713.74 4220.03 5407.78 4084.49 5449.46 6179.96 6632.99 6113.54 5147.36 6260.79 3963.76 4563.46 5528.53 6799.88 3062.43 5726.66 5426.78 5652.0 5463.41 4159.35 4237.98 6439.37 6045.22 4614.3 3532.3 5580.92 5769.98 5067.46 2221.99 3580.58 4863.01 2775.69 5356.79 4785.25 3619.79 5029.47 6306.21 2978.76 2040.66 7016.27 5884.9 3876.21 4673.35 5689.26 4992.42 6022.7 4940.84 4833.46 4809.67 7248.4 5280.12 3946.28 5984.81 5439.9 5367.73 4409.27 4640.06 3456.47 5471.74 5421.64 3548.39 4858.51 4207.54 4886.12 6419.12 4976.12 4817.16 5453.98 3991.42 5148.08 4388.63 4834.87 5760.22 5938.17 4795.43 5398.64 6817.57 3614.96 3886.68 5703.74 5662.55 5737.92 3056.7 3755.95 4360.23 6234.32 5293.51 4446.06 5008.63 3450.93 5132.68 6595.03 4993.35 6218.95 5222.16 5107.23 5136.08 3178.54 5558.68 3776.94 4765.02 5629.39 4448.13 2684.03 5070.29 4768.61 2261.36 5075.55 6923.84 5227.59 6166.29 5453.6 5703.07 5294.77 4662.43 4630.82 4043.66 4813.08 4540.86 5990.52 4835.83 2967.38 5604.35 6316.56 6477.91 3091.67 6420.81 4081.97 5401.99 5973.33 3583.21 4347.74 2511.46 5291.9 4009.62 4011.37 2081.58 6505.78 5461.55 6519.43 5876.64 5424.46 4857.84 4908.49 4684.44 4962.21 4858.44 3468.42 4771.13 5297.19 4351.38 5550.75 5933.7 5466.33 4444.97 5721.05 3498.16 4247.69 4514.39 4588.99 4321.21 4344.34 3673.28 4928.27 3583.49 5052.84 3375.28 4366.74 5625.65 4301.61 3184.64 6107.89 4446.84 5660.55 3718.69 4514.79 3672.21 2216.82 4509.89 5269.38 5097.95 5108.06 3573.73 4693.52 4000.43 6853.04 3420.08 4745.43 5831.96 4539.07 4747.55 5464.68 5591.76 4586.19 4585.31 6625.18 5323.91 4270.74 6293.89 4558.15 4983.39 5366.52 4690.55 5533.72 5533.42 4802.32 4010.57 4599.38 5246.47 6157.04 6191.29 4522.21 7422.36 5506.19 6719.94 4950.67 5832.37 4642.93 5409.63 4263.16 4709.05 3077.84 6024.75 6109.49 5860.67 5332.65 3764.1 6451.33 5413.31 4332.87 4743.59 5208.14 4715.58 3317.83 4450.7 5151.52 5369.08 3101.75 4518.04 4766.06 4874.18 5435.19 3298.2 4270.15 6865.76 6449.64 6464.8 4406.05 4749.59 4680.94 5799.69 5571.72 3809.69 5236.43 3208.96 5285.07 7051.9 4184.23 4608.41 4144.57 5980.59 6834.41 6226.14 3796.15 3000.29 4209.31 5718.28 6242.79 5950.45 5713.03 5849.65 4165.21 5297.16 4936.96 5206.33 5530.49 5653.03 6192.0 4940.28 6752.75 5885.28 3004.34 5607.3 3022.6 2928.82 4811.76 4914.45 4222.4 4698.87 4568.41 3624.7 4912.04 4691.91 2685.81 4475.83 4510.8 5889.35 5010.04 4570.98 5097.45 4275.07 5825.38 5737.75 2761.07 5742.47 3778.02 6552.21 5417.8 7132.12 3678.08 5518.57 4187.31 5463.48 3240.51 5545.46 4527.99 5161.01 4298.15 4376.7 5190.61 4628.4 8325.01 6051.83 4440.81 5941.9 3973.12 6642.76 4497.78 5567.93 4243.79 5987.42 5433.65 4442.22 4887.76 4669.06 3012.99 4811.32 6400.08 6184.88 5829.32 4396.25 3763.05 5092.24 5551.95 5549.49 3918.87 2275.45 5423.42 6605.86 5012.5 3562.79 7093.13 4953.1 5818.95 4093.99 3604.14 3940.49 4452.54 5089.1 5828.35 4028.32 5876.72 4099.92 4884.59 4680.14 3858.06 4083.79 4187.94 5263.27 6300.92 5021.77 5599.29 4801.8 7216.98 5271.02 4807.4 7013.17 4601.74 6506.86 5088.57 5580.34 3852.6 5134.67 5775.31 4215.0 4603.5 4481.76 5452.78 5065.26 4304.41 4892.44 5578.94 4286.17 6579.31 5323.55 5375.1 5313.12 5351.56 4661.03 5160.59 3984.88 5262.35 4320.42 4255.34 5064.79 5480.3 7509.24 4394.56 5896.26 5388.78 4185.61 6101.13 4047.87 4573.72 5099.21 4917.99 5636.4 4367.78 5146.37 5670.0 4836.16 4232.16 5300.96 5151.11 5680.94 5730.33 3781.77 5581.55 5193.01 4543.1 6550.44 3860.83 3764.06 4523.39 5278.56 5434.47 5829.22 5631.14 4343.78 5811.18 4909.65 4008.15 7693.4 4286.49 4437.07 3449.37 5491.9 6405.0 4659.16 5789.55 4633.05 4901.2 5711.62 4383.56 4990.79 5166.79 6479.39 2895.63 4516.53 4122.92 5079.22 5381.54 5810.77 2711.19 5474.15 7519.2 6355.68 4511.7 4478.6 3953.55 4304.63 4469.54 4314.56 4173.54 6038.68 5046.12 3834.47 3805.67 4590.01 6101.86 5993.0 4803.57 5966.42 4110.59 4706.5 3332.49 5354.66 4647.67 4214.44 5375.12 4356.36 4787.97 3746.36 7610.49 4777.03 3684.56 4246.61 6028.09 5452.36 4172.6 3804.5 6486.37 5498.42 5318.53 4732.09 4281.98 7165.9 5344.83 7046.11 3427.63 4146.81 6342.48 5756.75 4587.67 5599.7 6969.28 3665.95 5698.96 4350.12 4095.75 5227.02 3603.51 4298.45 5222.51 6609.84 4344.51 5135.96 3834.43 5658.37 4707.06 6074.94 3474.5 5491.37 4250.88 3783.54 6348.03 5732.27 3475.67 4792.39 7038.89 5146.37 6917.62 4013.38 5067.56 6137.8 5263.3 3352.35 3747.03 6523.86 2783.85 4356.49 4326.48 3994.07 4219.94 5907.46 4264.91 5399.29 4909.31 6522.59 4798.17 5425.98 5996.66 4405.42 4997.91 3598.08 4599.81 5698.23 7300.58 4714.83 3608.06 6633.61 5217.95 5484.36 4277.24 4063.9 5291.05 5161.1 3928.53 4619.2 5606.51 5166.41 5740.65 5067.56 6349.67 6329.53 4139.3 4227.41 5078.31 5391.48 4923.43 5131.15 4847.14 3950.27 5116.66 5378.23 5374.67 4981.43 6789.23 3989.7 4215.2 5069.89 4157.29 6813.72 5327.75 4609.02 4638.18 4196.37 3344.57 6448.66 5220.76 6945.98 5138.2 5783.48 4863.97 4449.98 4504.35 4840.44 5093.82 5951.81 4163.74 3924.14 6918.35 4296.69 6238.32 3319.67 6471.42 5283.8 4076.59 4428.14 5164.1 6464.15 4972.17 5699.53 4222.77 5268.38 5527.23 4805.33 3863.67 5980.95 4814.12 6193.08 6069.3 2735.53 5887.01 5116.6 5388.39 5335.47 4526.81 5048.19 6799.23 4888.27 6740.71 6487.56 4854.11 5971.22 5533.19 5417.21 6602.43 3568.28 6063.64 7382.3 2995.67 5522.21 3772.3 4855.01 4923.57 3340.09 6061.63 2279.05 4867.7 4829.35 4075.28 8137.11 5484.32 6650.77 4067.96 7104.73 2596.96 5701.75 4350.15 3516.27 6541.45 4750.49 4263.78 4643.9 5228.75 6047.14 5009.83 5210.38 5717.8 3629.44 3566.79 5003.78 3299.24 6246.56 4741.28 4061.6 2603.64 5107.0 6212.15 4783.07 4896.65 4946.23 6083.28 5211.6 4453.97 3556.79 3503.41 6412.67 4701.5 7001.83 4771.65 5012.97 5589.37 5439.49 5212.43 4834.3 6804.79 6372.13 5369.5 5404.01 6016.19 4124.49 4479.11 5714.25 6685.4 4850.06 6332.01 7044.29 4234.18 4049.16 7085.01 3936.95 6153.94 6836.82 3862.77 4631.99 5168.35 4740.98 3185.39 5128.77 3728.18 5633.61 7122.87 4243.26 4153.84 5119.86 4592.15 5084.17 4901.44 3776.8 4998.22 5096.43 6156.21 6104.26 5583.61 6171.71 4986.71 3628.89 4668.88 4022.56 5027.43 5522.75 5867.64 6208.9 6059.93 5602.53 6545.43 6760.92 4711.04 4506.18 4824.12 6162.3 3272.75 5971.21 4264.54 5261.19 7043.44 4263.65 6106.43 4807.35 5666.95 4642.2 4811.22 3683.86 4918.76 5293.75 4208.41 5826.78 5473.72 2856.55 4553.68 6502.97 3758.22 4852.58 4757.2 5561.74 6100.73 5806.31 4745.79 5456.71 7317.04 3971.08 4036.91 4593.7 5110.11 6379.14 6639.64 3687.65 5454.12 4887.52 5478.95 6348.54 4066.57 5642.35 5156.76 6357.47 4891.38 5535.91 3230.13 5955.86 6176.67 5325.96 4848.46 5412.24 5016.02 4581.37 4920.21 5851.61 5478.11 5526.31 3858.17 