# vtk DataFile Version 2.0
Time step 75
ASCII
DATASET UNSTRUCTURED_GRID
POINTS 5000 float
233402.0 189544.0 0
279178.0 189366.0 0
196719.0 195256.0 0
202905.0 193979.0 0
209843.0 192762.0 0
215298.0 194708.0 0
219936.0 190755.0 0
228217.0 190881.0 0
225123.0 194134.0 0
232151.0 192693.0 0
236930.0 192296.0 0
242670.0 193152.0 0
249210.0 194353.0 0
255519.0 193629.0 0
263361.0 193701.0 0
268385.0 194028.0 0
273309.0 191293.0 0
283351.0 193888.0 0
289090.0 193119.0 0
296231.0 195031.0 0
301660.0 195094.0 0
195416.0 200525.0 0
200241.0 198252.0 0
203294.0 198713.0 0
206682.0 197324.0 0
211536.0 199039.0 0
216493.0 199612.0 0
220731.0 196211.0 0
229055.0 195563.0 0
225567.0 198696.0 0
233779.0 196932.0 0
239058.0 197304.0 0
244168.0 198596.0 0
252290.0 198833.0 0
259665.0 195997.0 0
256321.0 198983.0 0
265037.0 197683.0 0
261384.0 200018.0 0
270688.0 198640.0 0
273527.0 195816.0 0
275353.0 200052.0 0
278044.0 195446.0 0
281512.0 198994.0 0
284897.0 197758.0 0
288141.0 197894.0 0
291917.0 197255.0 0
302702.0 200354.0 0
199781.0 202824.0 0
204978.0 202227.0 0
210020.0 204221.0 0
215058.0 204047.0 0
221215.0 202014.0 0
226625.0 203894.0 0
230357.0 200571.0 0
231399.0 204883.0 0
234829.0 201915.0 0
240196.0 202669.0 0
248693.0 201186.0 0
245242.0 204943.0 0
253289.0 202882.0 0
258029.0 203503.0 0
262556.0 204194.0 0
267108.0 202261.0 0
271846.0 202685.0 0
275545.0 205251.0 0
279242.0 202480.0 0
285382.0 201658.0 0
290548.0 201394.0 0
293842.0 204033.0 0
297111.0 200834.0 0
302403.0 205363.0 0
307915.0 205030.0 0
192010.0 210250.0 0
194242.0 205837.0 0
199464.0 208004.0 0
205458.0 208253.0 0
213086.0 209558.0 0
219064.0 207341.0 0
223261.0 206380.0 0
228765.0 208600.0 0
233025.0 208323.0 0
236396.0 206212.0 0
240992.0 208419.0 0
246280.0 209976.0 0
250126.0 206601.0 0
255030.0 207546.0 0
260023.0 208102.0 0
265944.0 208314.0 0
270863.0 206339.0 0
273627.0 208546.0 0
270915.0 210205.0 0
278269.0 209244.0 0
282464.0 206361.0 0
288382.0 206175.0 0
293090.0 207854.0 0
296087.0 210504.0 0
297679.0 206228.0 0
195621.0 213222.0 0
201316.0 213305.0 0
206865.0 213983.0 0
211931.0 215458.0 0
218358.0 212707.0 0
223773.0 210697.0 0
227242.0 214148.0 0
231839.0 212757.0 0
236324.0 210416.0 0
243957.0 213005.0 0
240937.0 212866.0 0
246844.0 214411.0 0
251044.0 211456.0 0
254632.0 214451.0 0
257073.0 211225.0 0
261449.0 213289.0 0
267779.0 214703.0 0
274860.0 211894.0 0
282732.0 212921.0 0
288010.0 210990.0 0
287762.0 214811.0 0
292235.0 212520.0 0
299559.0 211446.0 0
297104.0 214685.0 0
301158.0 215728.0 0
304981.0 211551.0 0
191247.0 217507.0 0
195305.0 217981.0 0
200319.0 219480.0 0
206546.0 219615.0 0
216578.0 217137.0 0
222380.0 216261.0 0
219470.0 219767.0 0
226845.0 218071.0 0
230287.0 216902.0 0
233232.0 219998.0 0
236981.0 215627.0 0
242834.0 216913.0 0
247225.0 218128.0 0
250488.0 216013.0 0
253720.0 219303.0 0
258148.0 217307.0 0
262951.0 218960.0 0
267620.0 220111.0 0
273395.0 216122.0 0
270974.0 218920.0 0
277831.0 215614.0 0
276031.0 220142.0 0
279837.0 218661.0 0
285376.0 217212.0 0
282600.0 218064.0 0
284918.0 220643.0 0
289201.0 218856.0 0
293295.0 216781.0 0
296794.0 219403.0 0
301758.0 220940.0 0
304455.0 217125.0 0
306740.0 220349.0 0
308992.0 216356.0 0
190735.0 221877.0 0
190951.0 226168.0 0
195445.0 222425.0 0
203422.0 223789.0 0
207869.0 224903.0 0
212812.0 221334.0 0
218329.0 223954.0 0
223614.0 221639.0 0
228739.0 221786.0 0
234413.0 224999.0 0
238988.0 221404.0 0
244746.0 221844.0 0
249528.0 221154.0 0
248182.0 225355.0 0
253103.0 224410.0 0
258411.0 222579.0 0
265345.0 224092.0 0
271352.0 223369.0 0
276300.0 224806.0 0
280686.0 222636.0 0
288287.0 223875.0 0
292966.0 222007.0 0
297448.0 224360.0 0
305395.0 224205.0 0
308965.0 224657.0 0
191544.0 230001.0 0
194435.0 227865.0 0
197492.0 231105.0 0
199037.0 226314.0 0
203426.0 229781.0 0
207996.0 229168.0 0
212837.0 227527.0 0
218450.0 229149.0 0
222803.0 226446.0 0
228824.0 227306.0 0
239097.0 226490.0 0
235874.0 229571.0 0
243663.0 226636.0 0
246690.0 228800.0 0
251354.0 229976.0 0
256986.0 228182.0 0
261278.0 226239.0 0
265916.0 228437.0 0
270487.0 228600.0 0
275367.0 228963.0 0
279734.0 227679.0 0
284079.0 226023.0 0
287594.0 228389.0 0
292597.0 227184.0 0
301929.0 226954.0 0
297630.0 229823.0 0
305654.0 229764.0 0
308742.0 227795.0 0
191983.0 234045.0 0
196697.0 235997.0 0
201336.0 234389.0 0
206386.0 234396.0 0
210219.0 231405.0 0
210369.0 233948.0 0
214243.0 232830.0 0
223788.0 231077.0 0
219648.0 234341.0 0
228212.0 232669.0 0
232282.0 231603.0 0
236321.0 234730.0 0
241098.0 231111.0 0
246201.0 232306.0 0
250286.0 235381.0 0
256628.0 234740.0 0
261785.0 230571.0 0
262676.0 235245.0 0
267253.0 232989.0 0
273148.0 232910.0 0
278472.0 232903.0 0
283478.0 230679.0 0
288230.0 233204.0 0
292772.0 231866.0 0
296283.0 235570.0 0
301912.0 232767.0 0
308921.0 232590.0 0
193271.0 238929.0 0
199238.0 239989.0 0
202755.0 238288.0 0
206843.0 239308.0 0
210414.0 236972.0 0
215135.0 237973.0 0
220737.0 239584.0 0
225126.0 236290.0 0
228619.0 239056.0 0
231037.0 235826.0 0
233799.0 239546.0 0
238458.0 239716.0 0
241516.0 236125.0 0
245866.0 236448.0 0
248731.0 239982.0 0
252952.0 239082.0 0
261137.0 238828.0 0
270493.0 236599.0 0
266001.0 238634.0 0
275482.0 237709.0 0
279955.0 240016.0 0
283155.0 235943.0 0
286310.0 239067.0 0
290812.0 238109.0 0
296735.0 240426.0 0
302101.0 239384.0 0
308018.0 237440.0 0
195505.0 242643.0 0
199465.0 246406.0 0
202885.0 242283.0 0
207427.0 243970.0 0
211219.0 241005.0 0
212350.0 245289.0 0
216408.0 242659.0 0
221187.0 244415.0 0
225407.0 241076.0 0
230348.0 242802.0 0
235742.0 244684.0 0
243744.0 240822.0 0
240179.0 243321.0 0
243301.0 245645.0 0
247383.0 244329.0 0
251899.0 243661.0 0
257223.0 241797.0 0
262788.0 242561.0 0
266912.0 243012.0 0
270346.0 245527.0 0
271042.0 240942.0 0
275422.0 243528.0 0
284022.0 241679.0 0
288584.0 242156.0 0
293255.0 243017.0 0
298559.0 243841.0 0
302873.0 245907.0 0
204647.0 247787.0 0
209327.0 249308.0 0
216171.0 246119.0 0
214757.0 250430.0 0
218972.0 247968.0 0
222906.0 249040.0 0
226211.0 245593.0 0
227165.0 250675.0 0
230997.0 247796.0 0
235399.0 250231.0 0
239656.0 249602.0 0
239971.0 246318.0 0
243290.0 249281.0 0
246315.0 247676.0 0
250059.0 248075.0 0
260345.0 246007.0 0
255467.0 248020.0 0
265155.0 247518.0 0
260532.0 250162.0 0
269390.0 248989.0 0
273495.0 248405.0 0
280575.0 245132.0 0
277359.0 248352.0 0
278739.0 251204.0 0
282148.0 250083.0 0
285979.0 246125.0 0
291361.0 247920.0 0
297443.0 249221.0 0
202617.0 251454.0 0
202752.0 255956.0 0
206965.0 253854.0 0
211452.0 254034.0 0
216368.0 255763.0 0
219712.0 252337.0 0
223961.0 253071.0 0
231187.0 253087.0 0
235030.0 254632.0 0
238453.0 253864.0 0
242116.0 253229.0 0
246744.0 251911.0 0
251949.0 253102.0 0
257157.0 253401.0 0
263820.0 252010.0 0
261160.0 254895.0 0
267458.0 252061.0 0
269283.0 255377.0 0
271469.0 252229.0 0
275764.0 252725.0 0
280090.0 254672.0 0
283390.0 253619.0 0
287229.0 251967.0 0
292511.0 253000.0 0
297029.0 255046.0 0
201524.0 259522.0 0
205864.0 259429.0 0
209254.0 257195.0 0
212571.0 257647.0 0
218767.0 259752.0 0
215158.0 260549.0 0
221748.0 256779.0 0
227434.0 256070.0 0
225064.0 259906.0 0
232711.0 258415.0 0
236927.0 257546.0 0
244551.0 256491.0 0
240463.0 257735.0 0
243374.0 260217.0 0
248380.0 256301.0 0
246832.0 260069.0 0
254839.0 256988.0 0
251360.0 259241.0 0
258093.0 257865.0 0
255457.0 260673.0 0
261567.0 258913.0 0
265143.0 260268.0 0
265585.0 256071.0 0
269572.0 259718.0 0
272839.0 256098.0 0
274008.0 259314.0 0
276780.0 257182.0 0
280624.0 259076.0 0
284597.0 257120.0 0
288934.0 256266.0 0
288297.0 260812.0 0
292577.0 257837.0 0
296721.0 260488.0 0
201984.0 262455.0 0
204934.0 263343.0 0
207789.0 263237.0 0
210603.0 261248.0 0
214166.0 264413.0 0
218539.0 264141.0 0
222045.0 262084.0 0
229202.0 261177.0 0
225744.0 264025.0 0
233318.0 263197.0 0
229791.0 265574.0 0
237151.0 261560.0 0
240877.0 261705.0 0
244328.0 263865.0 0
240197.0 265202.0 0
248818.0 263389.0 0
252891.0 263424.0 0
258761.0 261614.0 0
256321.0 264499.0 0
259309.0 265616.0 0
262179.0 263228.0 0
266340.0 264074.0 0
270146.0 265101.0 0
273048.0 262453.0 0
277095.0 261924.0 0
278229.0 266354.0 0
281311.0 263107.0 0
284088.0 260920.0 0
285671.0 264373.0 0
292494.0 262714.0 0
293249.0 265880.0 0
296914.0 265786.0 0
202701.0 266690.0 0
202119.0 271259.0 0
206745.0 266447.0 0
205172.0 269944.0 0
208609.0 270445.0 0
210584.0 266415.0 0
213525.0 268664.0 0
211877.0 271233.0 0
216469.0 267722.0 0
222593.0 266306.0 0
219824.0 268485.0 0
223266.0 270919.0 0
226576.0 268514.0 0
232962.0 267241.0 0
230522.0 269843.0 0
234416.0 270658.0 0
236314.0 266245.0 0
238848.0 270036.0 0
242991.0 268234.0 0
247069.0 267374.0 0
249883.0 270265.0 0
251073.0 266708.0 0
254385.0 266729.0 0
253121.0 269499.0 0
257539.0 269684.0 0
262949.0 267945.0 0
267214.0 268017.0 0
266175.0 271306.0 0
274216.0 266319.0 0
270711.0 269904.0 0
275514.0 270186.0 0
279827.0 271115.0 0
282663.0 267200.0 0
284147.0 270797.0 0
289750.0 266163.0 0
286654.0 268723.0 0
290023.0 270726.0 0
293648.0 269131.0 0
297681.0 270426.0 0
202275.0 275102.0 0
205519.0 273334.0 0
209195.0 274164.0 0
212933.0 275018.0 0
216285.0 272205.0 0
220020.0 271505.0 0
223903.0 274614.0 0
220531.0 274683.0 0
227572.0 273111.0 0
231192.0 272784.0 0
233365.0 274389.0 0
236718.0 274247.0 0
242454.0 271830.0 0
240412.0 274458.0 0
243974.0 274844.0 0
245969.0 271590.0 0
249281.0 273747.0 0
246773.0 275374.0 0
253628.0 273650.0 0
257974.0 275167.0 0
261697.0 272523.0 0
264889.0 274674.0 0
268650.0 274522.0 0
273262.0 273831.0 0
277176.0 274417.0 0
280273.0 275468.0 0
283471.0 274291.0 0
286962.0 272740.0 0
289876.0 274829.0 0
293661.0 273520.0 0
297749.0 274097.0 0
197272.0 280669.0 0
203094.0 279430.0 0
206405.0 276565.0 0
207748.0 280461.0 0
210038.0 277497.0 0
213243.0 278379.0 0
211657.0 281513.0 0
217302.0 277440.0 0
221934.0 278206.0 0
225878.0 277774.0 0
228445.0 281536.0 0
230357.0 277115.0 0
234536.0 278085.0 0
232221.0 281517.0 0
238274.0 278101.0 0
242115.0 278211.0 0
245865.0 278365.0 0
[...]
POINT_DATA 5000
SCALARS Radius float 1
LOOKUP_TABLE default
3163.97 6810.52 5415.48 5120.0 6182.6 5492.18 5258.36 5061.3 3951.75 3642.12 5812.43 5906.14 7513.1 5254.28 4436.4 5733.48 5580.89 5553.16 6110.27 5840.26 5073.35 4834.9 3863.18 2356.98 4998.37 5351.6 4715.55 5867.73 4499.64 5013.56 5542.27 5122.66 5484.19 3557.27 4402.52 4688.68 4182.53 4517.56 4672.91 3588.44 5176.86 5645.7 4366.19 2938.66 3672.51 4008.92 5670.04 5085.53 5484.83 5538.89 4730.36 6059.59 5701.86 4375.68 4238.81 5054.98 6030.06 5170.02 5325.02 4927.31 5185.34 4432.58 5903.42 3761.32 5292.64 4118.05 5065.13 4940.78 3615.22 5561.06 4380.59 6716.79 3850.77 6044.04 5325.36 6759.9 7021.47 5926.61 2720.68 4955.55 3563.63 4468.59 5885.03 5246.2 5200.76 4862.64 5205.43 6684.56 3955.56 2635.86 3968.64 4385.06 6166.5 5936.02 4231.61 3942.53 5305.17 5546.39 5945.65 5418.62 5493.32 5416.38 6051.14 4195.44 5836.15 4345.55 2837.58 3653.41 3871.88 5017.13 4827.23 3673.74 6116.18 7447.37 4688.67 7184.19 4290.3 3867.67 4861.08 3379.84 4827.82 3607.45 7613.27 4133.88 4094.62 6483.19 6230.49 4601.27 5740.68 3641.64 4277.89 3261.21 5539.32 6704.06 5600.93 3856.01 4390.66 5279.39 4911.47 5803.39 4381.97 4924.6 3255.82 4733.32 5242.73 2812.98 2924.37 2899.43 4065.69 5399.73 4003.05 4805.87 5759.91 3589.27 4333.2 4951.03 4665.12 3936.02 4927.02 4174.52 5109.54 7054.71 5489.43 5747.75 4796.33 5360.19 6496.85 5541.59 4124.71 5083.08 5728.85 6337.56 5863.59 6257.19 4737.14 5603.15 5390.22 4712.33 5227.21 3997.1 3260.67 3383.4 3856.1 4044.71 5980.74 5816.2 3829.13 6458.82 5527.54 5054.25 7325.81 4874.39 4794.96 4839.34 2980.99 6834.49 5525.39 3998.5 4024.3 5555.28 4686.65 4695.45 4660.72 3888.21 6038.78 5123.52 5697.78 4295.38 3038.33 4780.03 5495.39 4487.31 5693.81 3091.3 2540.31 5789.98 5573.7 6138.47 4727.62 4055.8 6425.26 6186.19 4840.01 5611.2 7933.0 5938.34 5173.87 6394.38 5169.36 5834.74 5556.96 6052.7 3921.18 6902.81 4667.36 4392.68 3554.9 3996.0 4002.16 4778.34 4138.16 6029.66 6302.8 5697.4 4005.44 5206.78 5280.17 5028.96 5143.58 4484.76 5152.36 4220.65 4455.12 5118.27 5380.13 5932.23 5581.75 5788.23 3798.62 5891.05 4091.31 7199.21 5529.52 5252.48 6124.89 4015.92 5708.81 4684.5 5043.05 5120.49 5409.61 4270.95 5555.88 6732.43 6362.12 3866.16 4524.28 4511.82 5826.64 6820.42 4894.16 4896.52 4941.22 5711.87 5791.61 3666.57 4254.17 5615.42 4523.7 5255.32 5542.21 5924.89 3486.22 6894.71 4414.54 5262.61 6038.2 5094.81 5713.22 5861.71 5017.78 3183.98 3794.63 3778.1 4727.24 4816.2 6959.81 6321.41 4829.35 3372.79 5282.64 6392.01 4479.66 3369.13 5308.1 6644.76 6372.62 7565.34 5337.48 5637.59 5481.78 4937.14 5551.36 5201.36 4306.53 5972.06 4312.67 4359.04 5015.69 6175.81 6677.09 5813.4 4089.76 5201.67 4751.02 3192.41 5184.56 4715.72 5367.2 3043.85 6730.19 4937.02 6037.08 3103.0 6084.86 3307.12 4467.94 4850.81 4933.21 6038.14 6135.57 5024.9 5998.38 4270.24 4947.52 4989.15 4164.13 4520.1 4642.34 4305.57 5874.89 3791.79 4293.03 4754.05 4951.47 5526.55 6084.93 4987.87 3315.57 4669.66 4808.52 5461.13 4907.89 5655.21 5629.19 6756.95 4049.23 3586.91 3115.91 5478.92 5094.44 5375.47 4723.12 5659.17 4717.05 4562.29 5287.2 5423.8 3417.33 4926.42 5080.66 5153.74 4165.81 4424.7 4389.21 4128.98 4925.44 5246.61 5215.15 4764.96 5607.24 5053.92 4726.76 3599.45 5090.24 5091.39 2240.39 6324.23 5601.05 4382.74 4948.92 4516.43 4749.8 5810.84 3748.24 4230.54 4655.49 4809.42 4566.18 4964.09 5856.11 4234.94 4109.88 4980.85 5013.13 5714.58 5110.45 5248.77 4083.97 4528.09 3556.85 3895.51 6291.51 6246.22 4307.28 4100.38 5046.33 5804.71 5020.12 6352.26 5839.13 3735.44 5923.5 4073.93 4645.41 5096.78 4727.24 4651.28 4384.42 4493.48 5082.6 6163.38 3459.9 4093.08 4997.27 5543.27 3327.49 3960.8 4923.9 3329.99 4973.78 3947.47 5208.32 4607.02 3296.27 6673.96 5174.89 5882.89 4188.32 5538.93 5727.3 4242.52 3847.38 4907.06 4786.6 4433.59 5740.84 4612.68 4929.8 6355.42 4362.19 5690.56 3693.63 3937.74 5478.47 6061.47 4449.22 5628.24 5365.89 5992.26 5070.39 4511.54 4613.31 5091.68 4713.25 6243.0 5441.96 4288.3 5370.52 4739.42 3697.96 4899.11 4278.07 4723.48 4745.45 5356.51 3818.59 3057.03 5495.68 5163.9 4973.83 5530.87 3912.37 3320.52 4310.18 4151.94 5244.78 5762.84 6142.37 5119.37 3982.23 5806.08 4853.39 5243.29 3130.65 5004.67 5409.33 5196.0 4178.15 4204.84 6119.09 7531.29 5069.25 5935.03 5048.89 3991.03 3161.47 3435.9 4652.29 5774.81 4495.87 5027.98 5344.77 5097.87 5281.28 4863.72 2631.9 4087.15 5489.34 6043.3 5952.75 6445.94 4281.49 4129.43 4320.28 5927.43 4685.34 5492.26 4220.88 6640.13 5351.39 4336.42 3402.32 4583.31 7589.94 4466.03 4898.94 4733.04 5788.66 4755.47 6390.78 6826.57 4788.87 3746.31 5346.27 7267.18 4143.08 4758.21 5002.48 5708.14 4262.82 5537.72 6342.25 6327.9 6519.71 3092.35 3629.96 5210.03 3320.11 4306.11 6022.17 5903.66 5419.37 5985.29 4528.49 4247.23 4268.65 4694.83 4354.08 3903.75 4485.99 4520.62 5475.8 7435.25 5498.32 5543.46 6475.1 6255.18 2691.29 7500.97 3920.42 6332.36 5542.14 4218.06 4931.53 3843.58 5293.9 6082.81 5449.18 5367.52 4048.37 4714.54 5030.91 5507.24 4503.89 6851.54 5313.66 5935.47 5275.32 5512.23 4649.22 5509.42 5936.36 5475.7 5314.69 6050.81 4249.46 6022.72 4643.31 5527.33 4969.21 6256.02 4277.88 6623.85 8332.24 7134.64 6691.39 4602.25 6142.94 3191.99 5110.37 5664.98 4322.15 4659.59 5025.39 5101.59 4377.07 3813.22 5570.3 2651.49 5234.29 5349.31 4711.62 4114.24 5394.55 2976.22 4256.43 2682.24 5229.48 5415.19 4016.18 5127.16 5435.74 4244.99 5560.26 5965.81 2330.66 6917.52 4177.19 3691.0 5402.21 2845.98 4668.71 7228.46 5320.92 5102.36 5228.18 5787.31 6122.55 5480.13 4329.05 4931.38 4736.58 3485.26 3240.09 4556.36 3369.23 4548.16 3688.8 3848.93 5893.5 3695.36 6020.48 5200.05 4645.58 4091.8 5670.2 5094.52 5166.79 5928.32 4946.74 5526.75 3950.63 4612.62 4275.57 3619.07 5327.45 6185.89 2983.99 3702.37 5660.85 3990.25 4752.51 3758.07 4880.14 4989.09 3948.23 6362.14 6719.88 4342.9 5978.82 5978.9 2739.94 4270.53 4194.5 4792.73 5264.06 4515.71 5358.59 6202.55 4547.19 3817.13 5023.15 3963.86 5076.35 3844.9 6375.99 5273.35 5181.4 6259.23 3457.48 4662.56 5417.15 3405.98 5996.33 6631.19 6385.23 4467.04 3997.96 2614.4 4750.17 3460.94 6184.4 3587.05 4373.45 4982.31 6229.37 5269.18 4406.1 6155.31 5065.11 6308.71 5911.67 4790.08 4187.56 5082.47 4840.84 5513.6 5138.31 4901.41 4551.24 6387.01 7111.16 4871.44 4564.34 4853.02 6248.81 5088.44 4998.21 3931.07 7440.72 3688.16 4681.72 3949.6 5661.62 5817.25 5626.61 4439.35 6363.92 6205.93 3828.81 5830.72 5309.98 5289.52 5034.59 5314.85 4305.43 4553.56 4942.77 4223.33 5069.84 5329.64 3629.62 3323.28 4997.27 4501.51 3708.04 6013.14 3610.4 4621.75 4581.13 6338.89 4219.07 6480.17 5584.06 3838.56 5872.05 6079.11 4256.67 6430.39 4945.39 5376.71 4867.08 5703.6 5407.78 6648.68 6632.99 5061.98 4923.24 7177.44 4307.48 6718.19 4407.87 5450.44 3848.54 3927.99 5266.5 5868.82 4716.19 4051.44 4301.06 5135.69 5344.25 5344.0 5191.63 5379.87 4602.86 3856.59 2765.2 5572.95 5372.61 5413.79 3686.21 5402.24 6445.22 5013.42 4962.77 6101.92 5323.3 4427.28 4635.6 3082.32 4765.02 3658.37 4448.13 5070.29 5629.39 6326.18 4807.28 4713.74 4266.03 4084.49 4537.6 6179.96 4419.61 5147.36 6260.79 4563.46 4082.57 4236.14 5080.18 5941.4 6510.17 4454.63 4263.33 4050.9 6695.82 6049.55 5514.76 3456.98 4290.14 5925.6 5987.17 3979.82 6723.16 4746.52 5130.91 4948.5 5651.07 5210.48 7552.94 3627.55 6239.84 5865.39 5370.85 3178.54 6157.04 2684.03 4768.61 2261.36 5075.55 4220.03 5280.69 5703.07 5449.46 4662.43 6113.54 3963.76 5733.62 5169.9 5282.91 4425.84 4871.96 5331.02 4066.38 4523.88 5709.62 4241.89 6405.76 4593.7 6045.46 4043.57 4138.42 5586.81 5006.58 3824.16 5011.31 3868.18 3689.45 4527.02 5383.07 4531.14 4519.22 4602.85 4409.63 7644.38 4051.34 5521.25 5949.46 3661.9 5136.08 5246.47 3776.94 4010.57 4522.21 5506.19 6923.84 6166.29 4043.66 5294.77 6553.94 5282.51 3797.33 3004.16 7256.35 5742.65 5592.32 4800.69 5835.78 5054.74 4099.77 4877.67 4020.32 3498.2 4763.45 3815.26 4481.53 4292.06 5330.45 5077.33 3948.17 5045.38 5350.88 4959.34 4247.15 4790.78 6552.22 5379.09 6004.68 5278.36 6799.4 5107.23 5222.16 4187.31 5558.68 3240.51 6191.29 7422.36 6719.94 5161.01 4950.67 5453.6 5409.63 4709.05 3077.84 4630.82 5255.18 5528.53 4460.92 5460.65 4767.78 5945.89 4105.55 3279.1 5912.61 4978.31 4981.9 5941.72 4245.72 5794.24 4150.99 6562.18 4478.15 5681.38 5147.67 6318.18 5577.04 5125.78 4591.87 5452.83 6422.84 5534.94 5180.76 6218.95 5533.42 5533.72 3678.08 4599.38 4802.32 5730.33 4527.99 4543.1 4628.4 4376.7 5227.59 4298.15 6051.83 4263.16 4813.08 5726.66 6799.88 4540.86 3062.43 5426.78 4042.28 4863.23 3555.86 4402.67 4403.98 5381.16 4560.84 4948.98 4414.48 4537.32 5163.02 4127.74 4216.92 4704.72 5445.87 3771.48 5198.77 4986.77 5423.0 5643.58 6034.41 5197.52 5178.99 4027.09 5615.35 5801.99 4135.62 4860.33 4502.18 4993.35 3312.06 3361.26 4983.39 4690.55 5146.37 7132.12 5518.57 5463.48 5680.94 5545.46 5190.61 5832.37 3973.12 4642.93 6024.75 5860.67 5987.42 5990.52 5235.17 6566.1 6386.78 5227.52 5565.13 6086.96 6193.35 4541.21 4302.5 3066.13 5908.1 4850.01 4107.03 5215.05 5137.34 5344.43 4373.47 6169.11 5266.22 5172.53 3685.13 3418.99 5226.97 4480.95 5366.52 4558.15 5417.8 4232.16 4836.16 5151.11 5581.55 6550.44 3764.06 8325.01 5941.9 4440.81 6642.76 6109.49 3764.1 5652.0 4340.76 5463.41 4435.36 6065.22 5254.49 4421.12 4996.99 4221.28 4470.61 4656.78 4156.38 2476.04 6048.7 6009.88 4571.7 4177.94 4138.46 2775.04 5198.29 3975.31 6070.58 4044.45 5490.43 4285.32 4896.11 5022.28 4318.48 4285.66 6132.95 5008.63 5754.18 4270.74 5132.68 6595.03 6552.21 5227.02 4350.12 5300.96 5670.0 4344.51 5193.01 4707.06 3474.5 6348.03 4523.39 5732.27 5829.22 4497.78 5567.93 2967.38 5811.18 5332.65 4835.83 4779.5 6045.22 4929.75 4456.39 3701.27 4631.83 4092.24 4729.43 5105.16 6006.16 4344.58 5896.46 4271.69 3633.87 4810.12 3970.25 3821.72 6035.6 6449.45 3627.82 5262.19 4244.9 5339.38 4986.51 3872.61 4004.35 4763.96 3930.79 5293.51 3450.93 6293.89 5097.45 5737.75 2761.07 3778.02 3603.51 4367.78 4095.75 3834.43 6609.84 5135.96 5491.37 3781.77 6074.94 3860.83 4250.88 4792.39 5434.47 5278.56 6917.62 4243.79 5433.65 6451.33 4159.35 5225.33 4237.98 6439.37 6649.96 4896.39 5233.78 4562.74 5991.09 4678.38 5126.91 4164.68 4742.68 5634.83 4502.5 5347.48 3929.19 5922.5 6898.19 7099.43 5526.14 4470.4 6048.86 6894.26 5311.03 5255.12 4238.4 5365.24 4446.06 4185.61 4047.87 5099.21 5742.47 4917.99 3319.67 4076.59 5222.51 5164.1 5658.37 4972.17 5699.53 3783.54 3475.67 4222.77 7038.89 3863.67 5146.37 5631.14 4814.12 6137.8 4442.22 5604.35 5413.31 3091.67 4332.87 4614.3 4303.19 4384.88 6887.27 3633.79 6008.49 4806.34 3942.07 5448.61 5050.65 5316.75 4827.33 5495.84 6268.1 3784.5 5113.21 4862.21 5499.11 4011.77 4374.35 6396.74 4527.08 5776.37 5486.68 4516.28 5315.4 5100.25 5678.96 4611.53 5296.29 2681.29 5094.48 5576.92 6408.83 4586.19 6625.18 4573.72 4163.74 6969.28 5636.4 4298.45 6471.42 5283.8 4428.14 6464.15 6685.4 5268.38 4850.06 5527.23 4805.33 5980.95 4013.38 5067.56 4343.78 5263.3 4887.76 3012.99 4008.15 6316.56 6477.91 4081.97 5401.99 5514.84 6081.14 5421.53 5480.83 5776.57 7144.24 5133.97 7443.72 5022.8 6133.92 3937.08 7055.53 3719.84 4178.4 5820.48 5782.6 7034.11 2586.12 6261.42 6125.34 5965.78 5252.34 2965.79 4410.55 4287.63 3921.08 4190.31 5683.61 5805.86 5346.68 4049.02 5997.88 4360.23 6234.32 4585.31 5010.04 4570.98 5323.91 4296.69 4275.07 3665.95 5698.96 6372.13 5369.5 6016.19 4124.49 4479.11 5714.25 3230.13 5325.96 6332.01 7044.29 4581.37 4234.18 7085.01 6193.08 3352.35 2735.53 4909.65 5116.6 4669.06 4811.32 6420.81 6400.08 5134.39 4256.57 3914.2 4607.85 5580.92 5653.9 4220.46 4287.53 3600.43 5683.26 5598.74 6600.94 5371.02 4906.82 4788.58 5131.24 5513.57 6155.1 5013.67 5260.34 5729.23 5669.65 5934.22 6586.45 5011.84 4359.62 5253.55 5062.71 5433.8 6946.21 5975.63 5564.02 4274.61 6314.07 5083.41 7055.42 4558.46 3836.45 5731.57 5020.71 5662.55 5737.92 5839.71 3755.95 3056.7 5591.76 5889.35 4394.56 5388.78 6101.13 5825.38 5599.7 6238.32 6804.79 5404.01 5642.35 5535.91 5955.86 6176.67 4533.37 5412.24 5016.02 2779.99 5887.38 4920.21 4049.16 3936.95 6153.94 6069.3 5887.01 3862.77 5168.35 6523.86 7693.4 4286.49 4715.58 4743.59 3317.83 5784.3 3532.3 5208.14 5769.98 6088.68 5937.08 6070.3 5612.21 5046.21 5894.61 5206.48 5687.83 5196.67 4709.35 5004.23 6496.67 3780.23 5876.71 5474.8 5826.04 5624.49 5339.78 3745.84 4730.41 3471.03 5690.26 5696.88 4004.04 5607.14 6915.83 6057.22 4156.2 4027.46 4289.17 6072.45 5511.88 4497.59 6444.77 4470.98 4512.11 5759.46 6248.6 5708.99 5443.58 5687.85 6401.43 5703.74 4747.55 2685.81 5464.68 4510.8 5896.26 4587.67 5951.81 3924.14 6918.35 4834.3 6348.54 4066.57 6357.47 6101.57 4891.38 4793.65 2949.12 4532.89 6040.74 4848.46 5742.09 6942.34 5851.61 3658.05 6836.82 3858.17 3477.1 3747.03 4631.99 5388.39 2783.85 4356.49 4326.48 4437.07 6184.88 3449.37 5829.32 4396.25 4450.7 5151.52 5973.33 3583.21 2221.99 4643.56 5442.32 4135.08 5291.9 5128.57 5067.46 4929.14 6000.7 5945.08 5139.5 6442.69 7493.3 6320.71 5226.0 4373.3 4750.78 5029.78 6262.72 3095.48 4166.08 3979.26 5188.81 6608.73 3923.03 4643.85 3999.48 6062.05 4203.26 5082.74 4735.33 4413.85 5411.85 3999.94 4844.57 3901.8 5092.37 4864.22 5941.61 5782.48 4031.78 4933.65 5950.04 6098.1 2435.33 4231.83 6333.29 4477.04 4074.48 3614.96 4558.47 3886.68 4691.91 5831.96 4539.07 5064.79 4475.83 5480.3 7509.24 4146.81 5756.75 4840.44 5093.82 6639.64 5212.43 5454.12 6318.23 3851.85 4058.87 4206.98 5156.76 5932.07 5948.71 3856.53 5460.89 4054.22 5260.85 2884.65 5393.65 5807.46 4648.21 4393.16 3311.29 3110.13 5478.11 5526.31 5030.15 3644.78 4078.93 4740.98 3185.39 3728.18 5335.47 5128.77 4526.81 3994.07 3763.05 5491.9 6405.0 5092.24 5551.95 4659.16 3918.87 4347.74 5369.08 4518.04 4863.01 4009.62 3580.58 5620.74 5356.79 5604.21 3979.54 5233.29 3169.67 4968.03 5304.13 4814.55 3361.92 5944.09 4648.04 3527.05 5833.06 5698.77 6607.87 3664.11 5762.59 3365.82 4163.5 4861.06 6481.79 5320.28 4796.58 4298.67 5873.69 5960.66 4962.09 5654.31 4831.47 5563.79 6939.12 4406.4 6853.85 6171.13 3493.47 4020.4 2395.5 3497.9 4596.75 3374.08 4188.87 3735.24 5564.23 5151.21 6574.95 5398.64 6853.04 6817.57 4745.43 3420.08 4912.04 4255.34 5344.83 7046.11 3427.63 4863.97 5589.37 6342.48 5439.49 3687.65 5216.26 4887.52 5478.95 6571.31 4392.65 6103.11 5174.75 5048.55 4984.46 4024.31 5844.72 4147.31 3992.97 5989.05 7228.94 4441.22 4961.99 4595.12 5853.89 4386.8 4549.69 6484.43 6423.81 3485.54 6192.77 4312.15 5934.82 4501.78 5633.61 4219.94 5048.19 5907.46 4264.91 4888.27 5399.29 5549.49 5789.55 3101.75 4766.06 6605.86 5423.42 4874.18 2081.58 2511.46 2775.69 4011.37 4312.56 4778.82 5657.36 4612.06 5204.04 6124.08 3306.14 5467.84 5029.47 5490.58 4863.79 4750.58 5395.14 4702.06 3464.83 6515.84 4143.78 5117.47 5374.51 4123.6 4538.95 7092.87 4970.88 5224.12 4850.14 3637.61 6098.14 4569.12 5750.71 3493.7 4938.74 4472.17 6222.42 4200.03 5313.22 5470.77 5516.95 3474.39 5328.22 4151.76 4575.94 4216.17 3905.51 4721.02 6484.17 3546.71 4254.37 4938.72 5956.65 5768.57 4498.25 5931.77 5108.06 4000.43 4222.4 4693.52 3573.73 4661.03 4568.41 3624.7 5160.59 5262.35 4320.42 4281.98 7165.9 5783.48 4449.98 4701.5 4504.35 5012.97 4771.65 4036.91 5110.11 6379.14 3634.5 4027.63 6631.28 5420.67 6413.15 5416.45 6459.51 4955.16 3288.01 4904.51 2202.77 5950.88 4149.55 6201.86 6551.93 7554.58 3380.69 4140.4 4725.01 4625.67 4458.64 4583.52 3657.69 6418.11 7122.87 4243.26 3572.94 6799.23 4153.84 6740.71 5119.86 6487.56 4633.05 4854.11 4901.2 6505.78 2275.45 6522.59 5012.5 6519.43 3619.79 5876.64 4270.15 6710.88 5053.95 3967.48 6667.68 2477.07 4923.41 6213.04 5724.64 4925.63 2990.77 3163.78 5965.15 4763.66 4888.6 4666.81 6739.08 5882.65 7042.12 4797.52 4471.58 5501.93 5462.21 5463.38 6313.06 5374.98 5945.21 6345.13 6470.3 4719.7 5599.49 4097.57 3436.15 5005.85 5711.11 5325.44 5102.75 5021.88 4597.29 5938.17 4200.09 4795.43 5097.95 2928.82 5313.12 4914.45 4698.87 5351.56 3984.88 3344.57 5318.53 4732.09 5220.76 6945.98 5138.2 6412.67 7001.83 4593.7 4349.13 4891.67 6818.91 3503.65 3429.57 5569.2 5350.88 5305.59 6114.89 4330.58 5754.6 4355.83 6870.97 5751.15 6056.87 5474.01 5307.35 4342.18 3639.44 5446.4 5966.75 5725.37 3868.62 5510.9 4883.63 3492.83 4922.49 6015.02 5244.22 5797.36 5585.14 5001.58 7039.98 4820.17 4592.15 4729.42 5089.26 5084.17 4901.44 5971.22 4909.31 5533.19 5711.62 4785.25 5435.19 5461.55 7093.13 3298.2 6306.21 5926.11 5253.37 4497.31 5235.11 5211.38 3830.46 4721.32 6515.8 4305.16 3293.56 6413.11 5078.86 5092.28 4739.14 4780.2 5163.55 4918.77 4636.5 4819.73 6326.39 6817.32 3382.7 6471.55 5085.71 5960.56 6343.14 6643.85 6049.79 4020.95 5862.86 4390.41 6113.95 5226.56 5274.19 4901.07 3981.07 4050.08 5186.3 5452.42 5017.5 3991.42 4893.49 5966.61 4514.79 4834.87 3672.21 4509.89 5760.22 6752.75 5269.38 5607.3 4811.76 4638.18 5498.42 4196.37 5806.31 6448.66 4453.97 3556.79 3503.41 7317.04 3971.08 4482.9 6204.65 6550.4 3766.69 5513.8 5036.98 4120.07 5188.53 4882.66 4521.75 6746.66 5410.33 3908.56 4642.74 6735.97 5244.78 3636.15 5483.7 5135.63 6384.7 3152.86 3896.27 5952.38 5351.86 5807.52 5963.36 5230.02 5087.14 5169.48 6016.08 5166.89 5491.63 4731.21 6064.71 6102.98 5138.33 3743.76 4505.28 3425.69 4971.29 6280.13 5510.45 3684.15 5832.29 4438.76 6456.58 4159.81 3886.72 5415.45 5244.98 5792.98 4998.22 3776.8 5096.43 5417.21 6156.21 6602.43 6104.26 3562.79 4383.56 4798.17 4990.79 6865.76 4953.1 5424.46 2895.63 6449.64 5266.01 5767.9 2040.66 6031.67 5384.76 5529.42 5274.14 5257.12 4434.19 4903.82 5100.1 3954.91 4940.42 3703.1 5923.4 4623.61 4946.42 5409.66 4082.47 2965.01 6263.44 6235.57 4319.79 5122.63 4863.27 5774.97 6766.43 2315.64 4703.08 4890.5 4488.85 3731.84 3423.15 5010.2 4579.69 3554.48 6496.52 3718.69 4997.83 4388.63 5578.94 6192.0 4940.28 5885.28 2216.82 6579.31 3004.34 5323.55 3022.6 5375.1 3804.5 6486.37 4172.6 6083.28 5211.6 4745.79 5456.71 5470.04 4908.75 6556.26 2628.22 5684.25 5438.92 4124.76 4244.49 4775.04 4952.52 3840.21 3646.95 4081.34 4954.76 4844.83 6334.53 5377.37 5869.67 5652.87 4311.48 4899.73 5018.69 5457.66 6394.19 5973.89 6193.73 5518.11 4192.21 5712.35 5701.52 4743.9 3124.7 3719.11 4467.13 6060.17 3877.8 6711.21 5153.18 5902.67 4236.86 4730.14 2606.51 5393.76 6006.89 3994.39 4941.02 3864.92 3814.65 3965.3 4618.73 2955.36 3668.93 4960.64 4983.3 6592.93 6350.71 6436.74 3568.28 5425.98 5583.61 5166.79 5996.66 4516.53 5818.95 3940.49 4093.99 4857.84 2978.76 5079.22 6464.8 7016.27 4908.49 6138.12 6622.11 4689.15 4428.78 5089.62 4965.89 3685.65 6790.73 5746.28 4371.99 5243.43 5187.7 5659.95 6090.91 4186.6 3561.29 4537.14 3295.83 4152.85 5551.9 5644.82 6413.02 5203.08 5412.31 3492.19 5374.07 4584.5 4118.84 5548.29 5916.16 3623.87 5163.77 6934.37 6027.62 6098.95 5765.42 6123.03 5453.98 5148.08 5653.03 4777.03 4157.29 4246.61 7610.49 4286.17 6028.09 5452.36 4609.02 4896.65 5561.74 5975.23 6100.73 4198.94 4788.08 6163.54 4211.82 5212.37 6003.78 5965.58 4607.18 4901.29 5058.51 3899.7 4050.03 7200.89 4813.33 4147.49 4802.98 4833.55 4705.68 7224.99 4749.96 4658.24 4906.11 4387.39 4564.1 5509.51 4848.14 5366.22 7261.51 5254.24 4968.14 3742.11 3597.43 4914.03 6776.22 4158.91 5144.56 5321.17 5311.55 3360.86 4869.25 6273.6 4763.4 5454.11 5024.32 4708.17 3779.45 5806.61 4983.1 6119.99 4128.1 7123.04 5372.82 4385.81 4009.24 4402.17 4034.05 7778.01 2460.79 5690.96 4653.83 4456.11 4125.9 6063.64 5096.24 6479.39 4986.71 4122.92 4405.42 4452.54 4997.91 3604.14 4599.81 4684.44 5381.54 4962.21 4749.59 4406.05 5884.9 3468.42 4858.44 5828.35 3685.13 5799.69 4590.55 4673.35 3876.21 5571.72 4655.16 4741.26 5920.32 3701.16 4916.22 5297.19 6022.7 5251.4 3867.19 4219.78 4963.34 4188.3 5081.78 4459.28 4260.92 5499.39 6250.23 4407.9 4440.57 4718.54 6736.03 8659.64 3087.09 4055.54 7480.41 4588.7 3766.55 6107.89 5469.13 4976.12 4233.8 5530.49 4304.41 4817.16 5660.55 4892.44 6789.23 3989.7 5069.89 5107.0 6212.15 3684.56 5327.75 6813.72 4946.23 4783.07 6200.63 4852.58 6816.66 4532.7 4504.86 3844.54 3217.67 4473.29 5034.69 5079.64 4509.46 996.652 4680.69 6500.49 3352.34 4972.18 2403.72 5078.59 5134.33 2646.13 5419.57 5162.67 3629.49 5760.98 5469.35 5384.86 4019.34 3623.19 4869.48 5510.96 6653.07 4745.16 4697.91 5825.55 5719.79 50