# vtk DataFile Version 2.0
Time step 54
ASCII
DATASET UNSTRUCTURED_GRID
POINTS 5000 float
207666.0 280059.0 0
213215.0 281228.0 0
278345.0 281716.0 0
297464.0 280135.0 0
202706.0 281839.0 0
202414.0 286878.0 0
206549.0 284336.0 0
209467.0 283297.0 0
211363.0 286386.0 0
216782.0 285792.0 0
221707.0 283732.0 0
228696.0 284193.0 0
225125.0 286719.0 0
232210.0 282077.0 0
232782.0 285398.0 0
237279.0 284007.0 0
242709.0 286050.0 0
249371.0 286512.0 0
255686.0 285964.0 0
266547.0 285988.0 0
271388.0 283154.0 0
285839.0 284596.0 0
291280.0 282162.0 0
297168.0 285409.0 0
207011.0 288624.0 0
214196.0 290464.0 0
221120.0 289355.0 0
226271.0 290927.0 0
230297.0 288685.0 0
235167.0 289163.0 0
239998.0 290789.0 0
245023.0 291135.0 0
253255.0 291048.0 0
257502.0 290322.0 0
260855.0 287531.0 0
264182.0 290179.0 0
268465.0 290865.0 0
270851.0 287669.0 0
273204.0 291898.0 0
275306.0 287074.0 0
277886.0 291276.0 0
280736.0 287287.0 0
284294.0 289859.0 0
281494.0 291379.0 0
287802.0 289125.0 0
292106.0 287693.0 0
296672.0 291409.0 0
203014.0 292136.0 0
201901.0 296601.0 0
206157.0 296725.0 0
209618.0 292976.0 0
213841.0 296167.0 0
217921.0 293305.0 0
222788.0 294996.0 0
228239.0 295721.0 0
231996.0 292774.0 0
232859.0 297028.0 0
236379.0 294162.0 0
241478.0 296049.0 0
249372.0 292104.0 0
247026.0 295688.0 0
251924.0 295466.0 0
256754.0 295061.0 0
260898.0 292751.0 0
260967.0 297022.0 0
265384.0 294972.0 0
269996.0 294720.0 0
276328.0 295108.0 0
280523.0 295077.0 0
285107.0 293905.0 0
288946.0 292542.0 0
289004.0 296936.0 0
292350.0 294032.0 0
202779.0 300819.0 0
210202.0 300653.0 0
218428.0 297679.0 0
222364.0 300728.0 0
226252.0 299326.0 0
229784.0 300425.0 0
233690.0 300688.0 0
236847.0 298622.0 0
240476.0 301766.0 0
245086.0 300200.0 0
249859.0 299767.0 0
254594.0 299523.0 0
259067.0 300975.0 0
264607.0 301087.0 0
268703.0 298242.0 0
273020.0 297835.0 0
270611.0 300640.0 0
278054.0 299934.0 0
283847.0 299032.0 0
287959.0 301048.0 0
291476.0 300471.0 0
296213.0 298325.0 0
202032.0 305158.0 0
206451.0 304977.0 0
211662.0 306379.0 0
216362.0 302668.0 0
221381.0 305950.0 0
226548.0 304435.0 0
232203.0 304991.0 0
236345.0 303202.0 0
243913.0 304120.0 0
241491.0 305987.0 0
247636.0 304356.0 0
252212.0 303778.0 0
256074.0 303647.0 0
259876.0 306278.0 0
269365.0 303305.0 0
266011.0 307463.0 0
273416.0 302496.0 0
271847.0 306638.0 0
277484.0 306177.0 0
281908.0 303393.0 0
282694.0 307349.0 0
285980.0 304575.0 0
290244.0 303789.0 0
293643.0 303153.0 0
294383.0 306585.0 0
297549.0 304089.0 0
202040.0 308775.0 0
202300.0 312641.0 0
206923.0 310446.0 0
212607.0 311620.0 0
216680.0 308381.0 0
220836.0 310315.0 0
229357.0 308289.0 0
225338.0 309921.0 0
232560.0 309454.0 0
229820.0 311989.0 0
237167.0 308388.0 0
242840.0 309894.0 0
246606.0 308252.0 0
248305.0 311308.0 0
254659.0 307473.0 0
250469.0 308055.0 0
252771.0 312137.0 0
257200.0 310687.0 0
261725.0 311784.0 0
270182.0 310877.0 0
274334.0 310527.0 0
280380.0 309956.0 0
277798.0 310924.0 0
283741.0 311705.0 0
286372.0 308395.0 0
290509.0 307549.0 0
288839.0 311499.0 0
294043.0 311048.0 0
297852.0 308363.0 0
298375.0 311891.0 0
201934.0 316435.0 0
205544.0 315578.0 0
209438.0 314787.0 0
213172.0 316908.0 0
217906.0 314389.0 0
222811.0 313557.0 0
226757.0 315133.0 0
233940.0 313356.0 0
230877.0 317329.0 0
239428.0 314179.0 0
245019.0 314463.0 0
249331.0 314677.0 0
252589.0 317526.0 0
257384.0 315614.0 0
263035.0 316948.0 0
266157.0 313134.0 0
269349.0 314106.0 0
272967.0 314943.0 0
276469.0 313339.0 0
279696.0 313346.0 0
277275.0 317227.0 0
282313.0 316775.0 0
286545.0 315042.0 0
291258.0 315246.0 0
295410.0 315336.0 0
298502.0 314754.0 0
201651.0 319374.0 0
202338.0 322679.0 0
204653.0 319623.0 0
208720.0 319235.0 0
212935.0 320818.0 0
217401.0 320457.0 0
222465.0 317792.0 0
222292.0 322450.0 0
226959.0 320054.0 0
232166.0 322929.0 0
235391.0 318068.0 0
237323.0 322357.0 0
239829.0 319089.0 0
243830.0 319021.0 0
247912.0 318619.0 0
246125.0 322026.0 0
255954.0 321337.0 0
259701.0 319413.0 0
264870.0 321286.0 0
268173.0 317855.0 0
272730.0 319489.0 0
279975.0 321170.0 0
275851.0 321611.0 0
283859.0 320835.0 0
288182.0 319164.0 0
293580.0 319307.0 0
297877.0 318112.0 0
297841.0 321888.0 0
202726.0 326785.0 0
205874.0 323330.0 0
207155.0 327271.0 0
209947.0 323767.0 0
213966.0 323716.0 0
211948.0 327560.0 0
217097.0 325814.0 0
221824.0 327380.0 0
226501.0 324723.0 0
229933.0 327518.0 0
237525.0 327231.0 0
242062.0 323656.0 0
246244.0 325755.0 0
250727.0 323090.0 0
255823.0 327693.0 0
260740.0 323334.0 0
269277.0 322795.0 0
265428.0 326123.0 0
269641.0 327894.0 0
273168.0 325140.0 0
277751.0 325579.0 0
282571.0 325383.0 0
286203.0 323533.0 0
290123.0 323398.0 0
286906.0 326888.0 0
294407.0 323380.0 0
297303.0 326494.0 0
201740.0 330270.0 0
205242.0 330433.0 0
208938.0 330763.0 0
212899.0 331451.0 0
214909.0 328973.0 0
217589.0 331118.0 0
222406.0 332655.0 0
226381.0 329810.0 0
233294.0 328378.0 0
230607.0 331831.0 0
235412.0 331974.0 0
239587.0 332388.0 0
242400.0 328738.0 0
246316.0 329764.0 0
250191.0 328571.0 0
252745.0 332224.0 0
259850.0 331805.0 0
261174.0 328093.0 0
264232.0 331351.0 0
268790.0 332460.0 0
273691.0 330250.0 0
278612.0 329979.0 0
283441.0 330274.0 0
288176.0 331105.0 0
292031.0 328043.0 0
296479.0 331945.0 0
202585.0 333641.0 0
203008.0 337962.0 0
206601.0 333721.0 0
207872.0 337750.0 0
210506.0 334268.0 0
212584.0 338125.0 0
214741.0 334801.0 0
218771.0 335923.0 0
223085.0 337224.0 0
226685.0 334221.0 0
229669.0 335838.0 0
233157.0 335666.0 0
237348.0 337544.0 0
244351.0 333734.0 0
241192.0 336217.0 0
249021.0 333259.0 0
247725.0 337494.0 0
251812.0 336990.0 0
256455.0 334930.0 0
261514.0 335505.0 0
265302.0 335524.0 0
268300.0 337658.0 0
272290.0 335596.0 0
280341.0 333558.0 0
276498.0 334579.0 0
282733.0 334982.0 0
285580.0 334321.0 0
289315.0 336024.0 0
292032.0 333126.0 0
293482.0 336731.0 0
297449.0 336736.0 0
202571.0 342519.0 0
206229.0 342265.0 0
210618.0 342133.0 0
216281.0 338283.0 0
215728.0 342588.0 0
219673.0 339958.0 0
223519.0 341668.0 0
227300.0 338835.0 0
227976.0 343188.0 0
231943.0 340129.0 0
235931.0 342703.0 0
241324.0 339451.0 0
244130.0 338444.0 0
240051.0 342406.0 0
243584.0 342040.0 0
246597.0 340857.0 0
250032.0 341363.0 0
254975.0 341365.0 0
259305.0 339082.0 0
263769.0 340252.0 0
267828.0 341202.0 0
271633.0 340333.0 0
275314.0 339243.0 0
279761.0 338200.0 0
277519.0 341788.0 0
285141.0 339029.0 0
281574.0 342686.0 0
290567.0 340764.0 0
296283.0 341565.0 0
202773.0 346627.0 0
207762.0 346270.0 0
212271.0 346316.0 0
216995.0 347583.0 0
220372.0 344376.0 0
222316.0 348525.0 0
224707.0 345306.0 0
228048.0 348162.0 0
231843.0 345312.0 0
235521.0 347020.0 0
238798.0 346348.0 0
242451.0 345921.0 0
246870.0 345034.0 0
251736.0 346420.0 0
259688.0 343308.0 0
256710.0 346704.0 0
262774.0 344852.0 0
260492.0 348062.0 0
266229.0 344448.0 0
270110.0 344101.0 0
268220.0 347354.0 0
274443.0 343690.0 0
271771.0 347430.0 0
275647.0 347897.0 0
278460.0 345261.0 0
282191.0 346253.0 0
286370.0 344436.0 0
288588.0 348062.0 0
291969.0 345144.0 0
297034.0 346562.0 0
197272.0 354575.0 0
201968.0 352828.0 0
201517.0 350014.0 0
205783.0 350361.0 0
209839.0 349229.0 0
213199.0 349621.0 0
210808.0 352726.0 0
215700.0 352055.0 0
219295.0 351228.0 0
222556.0 353524.0 0
225534.0 351567.0 0
229554.0 353094.0 0
233008.0 350509.0 0
237210.0 349946.0 0
240583.0 350032.0 0
244763.0 349350.0 0
240532.0 353716.0 0
243291.0 352544.0 0
248331.0 349656.0 0
254678.0 350254.0 0
251357.0 352317.0 0
257742.0 351190.0 0
264695.0 348606.0 0
260992.0 352032.0 0
264492.0 352724.0 0
268835.0 351387.0 0
273131.0 350253.0 0
272681.0 353226.0 0
279872.0 348979.0 0
276636.0 352092.0 0
284177.0 349275.0 0
280831.0 352688.0 0
284113.0 352827.0 0
288219.0 352130.0 0
292461.0 349232.0 0
292270.0 353634.0 0
296717.0 351317.0 0
202706.0 356779.0 0
204869.0 353975.0 0
207734.0 353494.0 0
207223.0 356456.0 0
210859.0 357293.0 0
214511.0 355349.0 0
219117.0 355322.0 0
217044.0 358220.0 0
222967.0 357500.0 0
226114.0 355576.0 0
229998.0 357380.0 0
233395.0 355237.0 0
237009.0 353715.0 0
235983.0 358338.0 0
239625.0 357220.0 0
243549.0 355989.0 0
246722.0 353331.0 0
246313.0 358634.0 0
249208.0 356115.0 0
253039.0 356448.0 0
255384.0 353908.0 0
258514.0 355043.0 0
256260.0 357815.0 0
261851.0 356220.0 0
266075.0 356050.0 0
269982.0 356215.0 0
274138.0 356556.0 0
277965.0 356141.0 0
282145.0 356738.0 0
285991.0 355600.0 0
289670.0 357273.0 0
293180.0 356376.0 0
296920.0 355873.0 0
202119.0 360737.0 0
205388.0 362747.0 0
205516.0 359541.0 0
208808.0 360724.0 0
212253.0 361527.0 0
214022.0 359198.0 0
216764.0 362317.0 0
220341.0 359690.0 0
220605.0 363056.0 0
223522.0 361858.0 0
226820.0 359939.0 0
232842.0 359287.0 0
230517.0 361706.0 0
234100.0 362701.0 0
238271.0 361997.0 0
242264.0 360115.0 0
241706.0 363555.0 0
245186.0 362956.0 0
248556.0 361745.0 0
250718.0 359502.0 0
253655.0 359719.0 0
251978.0 362742.0 0
259263.0 359151.0 0
256101.0 362635.0 0
260292.0 363611.0 0
263494.0 360397.0 0
267573.0 359560.0 0
267031.0 362841.0 0
271184.0 360611.0 0
279167.0 360803.0 0
275266.0 360056.0 0
285809.0 359251.0 0
283039.0 360599.0 0
284562.0 363252.0 0
287686.0 362004.0 0
290700.0 361120.0 0
293930.0 359216.0 0
294085.0 363367.0 0
297710.0 359966.0 0
297765.0 363255.0 0
202250.0 364234.0 0
206144.0 365737.0 0
209059.0 363979.0 0
209322.0 367025.0 0
211801.0 368002.0 0
212551.0 364812.0 0
216274.0 366545.0 0
223710.0 365117.0 0
220386.0 366058.0 0
223024.0 368649.0 0
227623.0 364441.0 0
226408.0 368289.0 0
230968.0 364826.0 0
233148.0 366249.0 0
230489.0 369103.0 0
236428.0 366168.0 0
239948.0 366341.0 0
243335.0 366178.0 0
246452.0 366038.0 0
249238.0 364896.0 0
245129.0 368916.0 0
248986.0 369414.0 0
253179.0 367198.0 0
257639.0 367560.0 0
264092.0 364982.0 0
261414.0 368044.0 0
266989.0 366526.0 0
270341.0 364882.0 0
269289.0 368957.0 0
272673.0 368107.0 0
274731.0 364295.0 0
278233.0 364933.0 0
276630.0 368436.0 0
281487.0 364007.0 0
280536.0 367648.0 0
283635.0 366107.0 0
287149.0 366356.0 0
[...]
POINT_DATA 5000
SCALARS Radius float 1
LOOKUP_TABLE default
5120.0 6182.6 6810.52 5073.35 5415.48 4834.9 3863.18 2356.98 4998.37 5492.18 5258.36 5061.3 3951.75 3163.97 3642.12 5812.43 5906.14 7513.1 5254.28 5733.48 5580.89 6110.27 5840.26 5670.04 5085.53 5351.6 5867.73 5013.56 4499.64 5542.27 5122.66 5484.19 4688.68 4402.52 4436.4 4182.53 4672.91 3588.44 5176.86 5645.7 4366.19 5553.16 3672.51 2938.66 4008.92 5561.06 6716.79 6044.04 3850.77 5325.36 5484.83 5538.89 4715.55 6059.59 5701.86 4375.68 4238.81 5054.98 6030.06 3557.27 5170.02 4927.31 5185.34 4517.56 4432.58 5903.42 3761.32 4118.05 5065.13 4940.78 3615.22 5305.17 4380.59 5546.39 6759.9 4730.36 5926.61 2720.68 4955.55 3563.63 4468.59 5885.03 5325.02 5200.76 4862.64 5205.43 6684.56 3955.56 5292.64 2635.86 6166.5 5936.02 4231.61 3379.84 7613.27 4133.88 5945.65 5418.62 7021.47 5416.38 6051.14 5836.15 4345.55 2837.58 3653.41 5246.2 5017.13 3673.74 6116.18 3968.64 7447.37 4385.06 4688.67 7184.19 4290.3 3867.67 4861.08 3942.53 3607.45 3589.27 4951.03 4094.62 4665.12 6483.19 6230.49 5493.32 4601.27 4195.44 5740.68 3261.21 4277.89 6704.06 5600.93 3871.88 3856.01 4827.23 4390.66 5279.39 4911.47 5803.39 4924.6 4733.32 2924.37 2899.43 5399.73 4003.05 4827.82 4805.87 5759.91 4333.2 3260.67 3936.02 4927.02 4174.52 5109.54 7054.71 3641.64 5747.75 5539.32 4796.33 6496.85 5541.59 4124.71 5728.85 6337.56 5863.59 4381.97 3255.82 5242.73 2812.98 4065.69 5603.15 5390.22 4712.33 5227.21 3997.1 3038.33 3383.4 4780.03 3856.1 5980.74 3829.13 6458.82 5489.43 5527.54 5054.25 7325.81 5360.19 4794.96 4874.39 4839.34 5083.08 2980.99 5525.39 3998.5 4024.3 6257.19 4737.14 4695.45 4686.65 4660.72 6038.78 5123.52 4295.38 4392.68 5495.39 4044.71 4487.31 5816.2 3091.3 5693.81 5789.98 6138.47 5573.7 4727.62 6425.26 6186.19 4840.01 6834.49 7933.0 5938.34 5555.28 6394.38 5118.27 5169.36 5834.74 5556.96 3888.21 5697.78 3921.18 4667.36 5529.52 3554.9 3996.0 4002.16 4138.16 2540.31 6029.66 6302.8 5697.4 4055.8 5206.78 5280.17 5028.96 5143.58 4484.76 5611.2 4220.65 4455.12 5173.87 5380.13 5711.87 5932.23 5788.23 6052.7 5891.05 6902.81 7199.21 5252.48 6124.89 4015.92 5708.81 4778.34 5043.05 4684.5 5120.49 5409.61 4270.95 4005.44 5555.88 6732.43 6362.12 3866.16 5152.36 4511.82 5826.64 6820.42 4894.16 4896.52 4941.22 5791.61 3798.62 5581.75 3666.57 4254.17 5615.42 4091.31 4523.7 5255.32 5337.48 5542.21 5924.89 3486.22 6894.71 4414.54 5262.61 6038.2 5094.81 5713.22 5861.71 3183.98 4524.28 5017.78 3794.63 3778.1 4727.24 6959.81 4816.2 6321.41 3372.79 5282.64 4479.66 6392.01 3369.13 6644.76 5308.1 6372.62 7565.34 5637.59 5481.78 4937.14 5551.36 5201.36 6038.14 4306.53 6135.57 5972.06 4312.67 4359.04 5015.69 6175.81 6677.09 4829.35 5813.4 4089.76 5201.67 4751.02 5184.56 3192.41 4715.72 4987.87 4669.66 5367.2 3043.85 6730.19 4907.89 4937.02 6037.08 4929.8 4049.23 3103.0 6084.86 3307.12 4467.94 5478.92 4933.21 4850.81 4723.12 5024.9 5659.17 5998.38 4270.24 4989.15 4947.52 3417.33 4164.13 4520.1 4305.57 5874.89 3791.79 5526.55 4754.05 4951.47 6084.93 3315.57 4764.96 4808.52 5607.24 5461.13 4726.76 3599.45 5655.21 5629.19 5091.39 6756.95 5601.05 3586.91 3115.91 4948.92 5810.84 5094.44 5375.47 4655.49 4809.42 4717.05 5287.2 4562.29 5423.8 5013.13 5080.66 4926.42 4642.34 5248.77 5153.74 4165.81 4293.03 4424.7 4389.21 4925.44 5246.61 5215.15 5046.33 5053.92 5839.13 5090.24 5923.5 2240.39 6324.23 4382.74 4384.42 4516.43 4749.8 4230.54 3748.24 6163.38 4566.18 3459.9 4964.09 5856.11 4234.94 4109.88 4980.85 5714.58 5110.45 3329.99 5208.32 4083.97 4528.09 3556.85 3895.51 4128.98 6291.51 5882.89 6246.22 4307.28 4100.38 5804.71 6352.26 5020.12 4073.93 3735.44 4907.06 4786.6 4645.41 5096.78 5740.84 4727.24 4612.68 4651.28 4362.19 4493.48 3693.63 3937.74 5082.6 6061.47 4093.08 4997.27 4449.22 5543.27 5628.24 3327.49 3960.8 5992.26 4923.9 4973.78 3947.47 3296.27 4607.02 4713.25 6243.0 6673.96 5174.89 4188.32 5370.52 4739.42 5538.93 3697.96 4899.11 5727.3 4242.52 4745.45 3847.38 5356.51 3057.03 5163.9 4973.83 4433.59 5530.87 3320.52 5293.9 4685.34 4151.94 5927.43 5492.26 6355.42 5244.78 5690.56 5762.84 5478.47 6142.37 5806.08 3982.23 4853.39 3130.65 5365.89 5409.33 5070.39 4511.54 4613.31 5196.0 5091.68 6119.09 4204.84 5069.25 5048.89 4288.3 5441.96 4652.29 5774.81 4495.87 5344.77 4723.48 4278.07 5281.28 5495.68 2631.9 3818.59 4863.72 6043.3 6445.94 4129.43 3912.37 4310.18 4320.28 6142.94 6342.25 3843.58 4329.05 4931.38 6082.81 3191.99 6327.9 4220.88 6640.13 5210.03 5351.39 5119.37 4583.31 4336.42 5243.29 3402.32 7589.94 5004.67 4466.03 4898.94 4178.15 4733.04 7531.29 3991.03 5935.03 3161.47 3435.9 6826.57 3746.31 4788.87 5498.32 5027.98 5346.27 5097.87 7267.18 4087.15 4143.08 5489.34 5002.48 5708.14 5952.75 4262.82 4281.49 5537.72 6332.36 4218.06 5542.14 6691.39 4602.25 4501.51 4792.73 4736.58 5513.6 4556.36 5110.37 3485.26 3240.09 5664.98 4659.59 4548.16 4048.37 5449.18 5367.52 6519.71 4714.54 3629.96 3092.35 3320.11 6022.17 6851.54 4503.89 4306.11 5903.66 4528.49 5419.37 5985.29 4247.23 4268.65 4694.83 4354.08 5788.66 4520.62 3903.75 4755.47 4485.99 6390.78 5475.8 7435.25 5543.46 6022.72 5527.33 6475.1 2691.29 6255.18 4758.21 7500.97 6623.85 3920.42 5102.36 4931.53 8332.24 7134.64 5480.13 4270.53 4790.08 4194.5 5191.63 5082.47 5344.25 5925.6 6013.14 5379.87 3708.04 4901.41 5264.06 5138.31 4551.24 4621.75 3369.23 5358.59 3688.8 4515.71 6202.55 4322.15 5025.39 5030.91 5893.5 5507.24 5101.59 3813.22 5570.3 5935.47 5234.29 5313.66 5512.23 2651.49 5275.32 5349.31 4649.22 5394.55 5509.42 4256.43 5936.36 5229.48 5475.7 4016.18 5127.16 5314.69 4244.99 6050.81 4249.46 5560.26 4643.31 5965.81 2330.66 6917.52 4969.21 5402.21 6256.02 4668.71 4277.88 7228.46 3948.23 5228.18 5787.31 4342.9 6122.55 2739.94 6155.31 5978.9 6308.71 3629.62 4187.56 4840.84 4997.27 5344.0 5135.69 4301.06 4593.7 6045.46 4763.45 5681.38 3771.48 4043.57 4478.15 4138.42 5987.17 3979.82 4602.86 2765.2 4581.13 4746.52 3856.59 4219.07 5413.79 3610.4 6387.01 6338.89 7111.16 3817.13 5023.15 4377.07 4547.19 3844.9 3695.36 3963.86 3848.93 5076.35 6020.48 5273.35 5200.05 4091.8 4645.58 5670.2 4711.62 4114.24 5166.79 2976.22 5094.52 5417.15 2682.24 4946.74 5928.32 3950.63 5415.19 4612.62 5526.75 4275.57 5435.74 5327.45 6185.89 4750.17 3702.37 5660.85 4177.19 3691.0 3990.25 4752.51 4989.09 4880.14 2845.98 5320.92 5269.18 6362.14 4406.1 6719.88 5065.11 5978.82 4553.56 4223.33 5911.67 5329.64 4716.19 6695.82 3456.98 5514.76 6405.76 4290.14 4020.32 4150.99 3815.26 5445.87 4216.92 4571.7 4271.69 5198.77 4107.03 5147.67 5643.58 4292.06 5577.04 6318.18 5006.58 5011.31 4481.53 5586.81 3948.17 3689.45 5572.95 6723.16 5372.61 5584.06 3686.21 6480.17 6445.22 4564.34 3838.56 4871.44 6248.81 6375.99 4853.02 6259.23 5181.4 3457.48 4998.21 4662.56 3405.98 3931.07 3688.16 7440.72 4681.72 4945.39 5996.33 5661.62 6631.19 3619.07 4467.04 5626.61 6385.23 5817.25 2614.4 2983.99 6363.92 3997.96 4439.35 3460.94 6184.4 3758.07 4373.45 3587.05 6229.37 4982.31 5289.52 5314.85 4305.43 5034.59 5450.44 3927.99 4942.77 5080.18 5069.84 4051.44 5266.5 5868.82 4050.9 3323.28 6049.55 5709.62 5835.78 5941.72 4877.67 3498.2 4245.72 6562.18 4704.72 4177.94 5908.1 4344.58 6048.7 4742.68 5634.83 4502.5 5499.11 5922.5 3929.19 3633.87 3970.25 4138.46 4850.01 2775.04 3821.72 5215.05 6035.6 4986.77 5137.34 5330.45 5423.0 5125.78 5077.33 3824.16 5045.38 3868.18 5350.88 5130.91 4948.5 5402.24 4527.02 4519.22 4531.14 5013.42 5651.07 4962.77 5872.05 5323.3 5088.44 4635.6 4256.67 6079.11 6430.39 5376.71 3949.6 5703.6 6326.18 4867.08 6648.68 4713.74 5407.78 5061.98 6205.93 6632.99 5830.72 4923.24 3828.81 5309.98 4236.14 6718.19 4407.87 3848.54 4307.48 5282.91 5941.4 5331.02 6510.17 4871.96 4263.33 4454.63 5742.65 4066.38 4523.88 3279.1 4241.89 4978.31 5054.74 4099.77 4981.9 4414.48 5794.24 4537.32 4541.21 4127.74 3066.13 4302.5 2476.04 4156.38 5896.46 6009.88 5495.84 6268.1 4164.68 3784.5 5782.6 5113.21 4862.21 4011.77 4374.35 4527.08 5347.48 4810.12 6396.74 6898.19 5526.14 5198.29 6449.45 3975.31 4044.45 5262.19 5344.43 6070.58 4373.47 6034.41 5452.83 5383.07 4959.34 4790.78 4591.87 4247.15 6552.22 4602.85 5210.48 7552.94 6101.92 3627.55 6239.84 5865.39 4427.28 3082.32 5370.85 3658.37 3178.54 4765.02 5629.39 4448.13 5070.29 4807.28 4266.03 5075.55 5280.69 4220.03 6923.84 4084.49 6179.96 4537.6 5147.36 4419.61 7177.44 4563.46 4082.57 5733.62 5169.9 5282.51 4425.84 3797.33 7256.35 5592.32 4800.69 4863.23 5912.61 4402.67 5381.16 4403.98 4948.98 4560.84 5227.52 5163.02 4729.43 4656.78 5105.16 5991.09 4092.24 6006.16 4678.38 5050.65 5448.61 5316.75 5022.8 4827.33 6133.92 7055.53 3719.84 4178.4 5013.67 5669.65 5253.55 5820.48 7034.11 6261.42 2586.12 6125.34 5965.78 5252.34 7099.43 2965.79 5315.4 5776.37 4516.28 5678.96 3627.82 4244.9 6048.86 4285.32 5490.43 5022.28 5197.52 5178.99 6169.11 5615.35 4027.09 4135.62 6422.84 5379.09 4502.18 5534.94 7644.38 4051.34 6004.68 6799.4 4409.63 5521.25 3661.9 5107.23 5136.08 5949.46 5558.68 3776.94 4010.57 2684.03 6157.04 4768.61 2261.36 4522.21 6191.29 5506.19 6719.94 5449.46 4950.67 6166.29 5703.07 6113.54 4662.43 6260.79 4043.66 3963.76 5528.53 6553.94 5255.18 5726.66 3004.16 5460.65 4460.92 5945.89 4105.55 4042.28 4340.76 6566.1 3555.86 6065.22 5565.13 6386.78 4470.61 6193.35 6086.96 3701.27 5233.78 4562.74 5126.91 5776.57 3942.07 5133.97 7443.72 3937.08 6600.94 5513.57 5371.02 5729.23 5260.34 5206.48 5934.22 6586.45 3780.23 5826.04 3471.03 5188.81 4359.62 3745.84 5011.84 5696.88 6057.22 5690.26 6946.21 5062.71 4289.17 5433.8 4497.59 5975.63 4274.61 6314.07 4410.55 4287.63 3921.08 4190.31 5486.68 5100.25 6894.26 4049.02 4470.4 4986.51 5311.03 5339.38 5255.12 4285.66 4896.11 5172.53 6132.95 5801.99 5266.22 4860.33 5226.97 3685.13 3312.06 5180.76 3361.26 3418.99 4480.95 4993.35 5278.36 6218.95 5222.16 5533.72 5533.42 4802.32 4599.38 5518.57 5246.47 4187.31 3240.51 7422.36 5161.01 4298.15 5227.59 4628.4 5832.37 6051.83 5453.6 5409.63 5294.77 3077.84 4709.05 4630.82 4813.08 6799.88 4540.86 3062.43 5426.78 4767.78 5652.0 5235.17 4779.5 4435.36 4421.12 5254.49 4996.99 4221.28 4456.39 4631.83 4384.88 6887.27 4806.34 6008.49 5480.83 7144.24 5653.9 3600.43 5598.74 4906.82 4788.58 5131.24 6155.1 4709.35 5196.67 6496.67 5876.71 5226.0 5624.49 3095.48 5339.78 5762.59 4166.08 4861.06 3979.26 5960.66 6608.73 3999.48 4203.26 4643.85 4730.41 3923.03 4004.04 5607.14 4156.2 6915.83 5564.02 6072.45 4470.98 6444.77 5083.41 7055.42 5683.61 5443.58 3836.45 5805.86 4558.46 5346.68 5296.29 4611.53 2681.29 3872.61 5094.48 5576.92 4238.4 4318.48 6408.83 3930.79 4004.35 4763.96 5008.63 5754.18 4270.74 5132.68 6293.89 6595.03 4983.39 5366.52 4690.55 5417.8 5146.37 7132.12 3678.08 4836.16 5151.11 5463.48 5730.33 4527.99 5545.46 4543.1 4376.7 5190.61 3764.06 4642.93 3973.12 4263.16 6642.76 6024.75 6109.49 5860.67 5987.42 5990.52 3764.1 2967.38 4835.83 5463.41 4159.35 5225.33 4929.75 4237.98 6045.22 6649.96 4614.3 4896.39 4303.19 5514.84 3633.79 6081.14 4256.57 5421.53 4220.46 4607.85 4287.53 5683.26 5612.21 5046.21 5894.61 4929.14 5687.83 5945.08 5004.23 6442.69 5474.8 6320.71 4373.3 4648.04 4750.78 6262.72 5029.78 3664.11 3365.82 5374.51 6481.79 5320.28 4569.12 4298.67 4796.58 4472.17 5873.69 4962.09 5470.77 5654.31 6062.05 5082.74 4735.33 5411.85 3999.94 4844.57 4027.46 5092.37 3901.8 4864.22 5759.46 5511.88 4512.11 6248.6 5708.99 5687.85 6401.43 5020.71 5997.88 5839.71 4360.23 6234.32 4585.31 5365.24 4586.19 5293.51 4446.06 3450.93 5097.45 4185.61 5737.75 4558.15 2761.07 3778.02 6552.21 4350.12 5227.02 5670.0 4232.16 5300.96 4344.51 5680.94 3781.77 5581.55 5193.01 6550.44 3474.5 8325.01 3860.83 5732.27 4440.81 4523.39 5941.9 5434.47 5829.22 4497.78 5567.93 4243.79 5811.18 5332.65 6451.33 6477.91 5604.35 3091.67 4332.87 6439.37 6420.81 4081.97 5401.99 5134.39 3914.2 5784.3 5769.98 6088.68 2221.99 5937.08 6070.3 5128.57 4135.08 6000.7 5620.74 5139.5 3979.54 5604.21 7493.3 4814.55 3527.05 5833.06 5698.77 6607.87 4163.5 6515.84 4143.78 4123.6 7092.87 5224.12 4850.14 4970.88 6739.08 4471.58 3637.61 5463.38 6098.14 5945.21 5750.71 3493.7 4938.74 6222.42 4200.03 3474.39 5516.95 4831.47 6939.12 4413.85 4406.4 6171.13 6853.85 2395.5 4020.4 4596.75 5941.61 3497.9 5782.48 4933.65 4031.78 6098.1 2435.33 6333.29 4074.48 4477.04 4558.47 3886.68 5731.57 5662.55 5703.74 5737.92 4747.55 3755.95 3056.7 5591.76 5889.35 5010.04 6625.18 5323.91 4275.07 5825.38 4047.87 5099.21 5742.47 6969.28 4917.99 5636.4 4367.78 4095.75 3319.67 3603.51 4298.45 5222.51 6609.84 5135.96 3834.43 5658.37 4707.06 6074.94 5491.37 4250.88 6348.03 3475.67 4792.39 5278.56 5146.37 6917.62 4013.38 5631.14 6137.8 4343.78 5433.65 4442.22 4887.76 5413.31 4669.06 3012.99 6316.56 4811.32 6400.08 4743.59 4715.58 5208.14 5580.92 3317.83 4450.7 3532.3 5151.52 5973.33 3583.21 4347.74 4643.56 5442.32 4863.01 5067.46 3580.58 5356.79 5233.29 3169.67 4312.56 4968.03 4612.06 5204.04 5304.13 5944.09 3306.14 5490.58 4863.79 3464.83 5395.14 4702.06 2477.07 5117.47 2990.77 5724.64 4538.95 4925.63 5965.15 4763.66 4888.6 7042.12 4666.81 4780.2 4797.52 6326.39 6643.85 6343.14 5501.93 5462.21 4020.95 6313.06 5374.98 6345.13 6470.3 4719.7 5313.22 5563.79 5328.22 4151.76 3905.51 4216.17 6484.17 4721.02 3546.71 3493.47 4254.37 5768.57 3374.08 4188.87 5564.23 3735.24 5950.04 4231.83 6574.95 3614.96 6817.57 6853.04 4745.43 5831.96 4539.07 5464.68 2685.81 4475.83 4510.8 7509.24 4394.56 5896.26 4570.98 5388.78 6101.13 4573.72 5599.7 4163.74 4296.69 3665.95 5698.96 6471.42 5283.8 4076.59 4428.14 5164.1 6464.15 4124.49 4972.17 4479.11 6685.4 5699.53 4222.77 4850.06 3783.54 5268.38 5527.23 7038.89 4805.33 3863.67 4814.12 6193.08 5067.56 6069.3 3352.35 2735.53 5263.3 5116.6 4008.15 4909.65 6523.86 7693.4 4286.49 6184.88 5829.32 4396.25 3763.05 5551.95 5092.24 5369.08 5291.9 4518.04 3101.75 4766.06 4009.62 4874.18 4011.37 2081.58 2511.46 2775.69 4778.82 6124.08 5467.84 3361.92 4750.58 5029.47 5053.95 6710.88 3967.48 6667.68 4923.41 4497.31 6213.04 3163.78 4305.16 4721.32 3293.56 5882.65 5092.28 5078.86 4918.77 5163.55 4819.73 6817.32 3382.7 6471.55 5085.71 4319.79 5960.56 5122.63 5774.97 6049.79 5862.86 4390.41 5226.56 4890.5 5274.19 6113.95 4050.08 5599.49 5452.42 4097.57 3436.15 5017.5 5005.85 5711.11 4575.94 5102.75 5021.88 4938.72 4597.29 5956.65 4498.25 5151.21 5931.77 5108.06 5398.64 4222.4 3573.73 4693.52 4568.41 3624.7 5262.35 3420.08 4912.04 4320.42 4691.91 4255.34 5480.3 5064.79 7046.11 3427.63 4146.81 6342.48 5756.75 4587.67 5951.81 3924.14 6918.35 6238.32 6804.79 6372.13 5369.5 5404.01 6016.19 5535.91 3230.13 5714.25 5955.86 6176.67 5325.96 5412.24 6332.01 5016.02 7044.29 4234.18 7085.01 5980.95 3936.95 6153.94 6836.82 3862.77 5887.01 5168.35 4631.99 3747.03 2783.85 5388.39 4356.49 4326.48 4437.07 3994.07 3449.37 4219.94 5491.9 6405.0 4264.91 4659.16 3918.87 5549.49 5423.42 4901.2 6605.86 6505.78 5657.36 4785.25 3619.79 6519.43 4270.15 5876.64 6306.21 5926.11 5253.37 5235.11 5211.38 3830.46 6031.67 6413.11 5529.42 5274.14 4739.14 5257.12 4636.5 5100.1 4434.19 4903.82 4940.42 3954.91 3703.1 4946.42 4371.99 5923.4 4623.61 4082.47 3295.83 2965.01 6413.02 6235.57 6263.44 4863.27 3492.19 4584.5 4118.84 6766.43 3623.87 5916.16 2315.64 4703.08 6934.37 4488.85 3731.84 3981.07 4579.69 3554.48 4901.07 5186.3 6496.52 5966.61 5325.44 4893.49 4834.87 3672.21 5760.22 5938.17 4200.09 4795.43 5097.95 4914.45 4698.87 4000.43 3984.88 4661.03 5160.59 5318.53 4732.09 4281.98 7165.9 5344.83 4701.5 4863.97 4449.98 4771.65 4840.44 5093.82 6639.64 5212.43 3687.65 5454.12 4834.3 6348.54 4066.57 5642.35 5156.76 6357.47 6101.57 4891.38 4793.65 4532.89 2949.12 4533.37 4848.46 5742.09 2779.99 5887.38 4581.37 4920.21 4049.16 5851.61 5478.11 5526.31 5030.15 3858.17 3477.1 4740.98 3185.39 5128.77 3728.18 5335.47 4526.81 5633.61 5048.19 6799.23 5907.46 6740.71 5399.29 5789.55 4633.05 5971.22 2275.45 4909.31 6522.59 5012.5 5711.62 5435.19 3562.79 5461.55 7093.13 3298.2 6865.76 5424.46 5266.01 5767.9 2978.76 2040.66 6515.8 7016.27 5384.76 6622.11 6138.12 4689.15 4428.78 6790.73 4965.89 5746.28 5659.95 5187.7 6090.91 3561.29 5409.66 4152.85 4537.14 5551.9 4219.78 4963.34 4260.92 5499.39 5644.82 4407.9 4440.57 5203.08 5412.31 5548.29 3087.09 7480.41 5163.77 6027.62 5765.42 3423.15 5010.2 6098.95 6123.03 4997.83 3718.69 3991.42 4388.63 6192.0 4514.79 2216.82 4940.28 4509.89 5885.28 6752.75 3004.34 5269.38 5607.3 4811.76 2928.82 5313.12 5498.42 3344.57 5351.56 6448.66 5220.76 6945.98 5138.2 5783.48 7001.83 4504.35 5012.97 4036.91 5589.37 5439.49 5110.11 6379.14 5216.26 4887.52 5478.95 3851.85 6318.23 4058.87 4206.98 5174.75 5932.07 4984.46 5948.71 3856.53 5460.89 6040.74 5260.85 2884.65 5393.65 5807.46 6942.34 4648.21 4393.16 3658.05 4549.69 3311.29 6423.81 6192.77 3644.78 4312.15 4078.93 5934.82 4501.78 7122.87 3572.94 4243.26 5797.36 5001.58 4153.84 4888.27 5119.86 4592.15 6487.56 5084.17 4854.11 4901.44 4998.22 5533.19 5417.21 6602.43 4383.56 4798.17 4990.79 5166.79 4953.1 4516.53 6449.64 2895.63 5818.95 3940.49 4093.99 4857.84 6464.8 4908.49 4962.21 5884.9 5089.62 3685.65 3685.13 4590.55 4673.35 5243.43 4655.16 3876.21 4741.26 5920.32 5869.4 4916.22 4186.6 3701.16 5251.4 3867.19 4345.67 4453.64 4188.3 5511.6 5019.93 5081.78 4459.28 3885.86 5235.29 4255.31 6116.33 5453.3 3838.47 4479.94 2588.37 6250.23 4718.54 5887.15 4435.51 6736.03 8659.64 5374.07 4055.54 4588.7 3766.55 5683.95 5469.13 4233.8 4976.12 5453.98 4817.16 5148.08 5653.03 5578.94 7610.49 6579.31 4286.17 5323.55 3022.6 5375.1 3804.5 4172.6 4638.18 5211.6 4196.37 5806.31 3556.79 5456.71 4453.97 3503.41 7317.04 3971.08 6412.67 6204.65 4482.9 4593.7 6550.4 4349.13 3766.69 4891.67 6818.91 3503.65 3634.5 4027.63 6631.28 6571.31 5420.67 4392.65 6413.15 6103.11 5048.55 6459.51 4024.31 4955.16 5844.72 3992.97 4147.31 5989.05 4054.22 7228.94 4441.22 4961.99 5853.89 6551.93 4595.12 3110.13 4386.8 6484.43 4625.67 3485.54 4458.64 4583.52 6418.11 6015.02 4922.49 5244.22 5585.14 7039.98 4820.17 4729.42 5089.26 3886.72 5415.45 3776.8 5096.43 6156.21 6104.26 3568.28 5583.61 5425.98 5996.66 6479.39 5079.22 4122.92 4997.91 3604.14 4684.44 4452.54 5381.54 4406.05 4749.59 4680.94 3468.42 4858.44 5799.69 5571.72 5689.26 4992.42 5297.19 6022.7 4255.85 4940.84 5895.77 5097.69 4765.72 6261.75 4517.73 5177.64 3757.34 2908.7 4039.91 6415.61 4338.08 4541.8 5660.16 6134.99 5424.88 5191.08 4062.5 4199.45 5415.85 7234.66 4207.54 6599.66 4886.12 6419.12 4936.96 6107.89 4301.61 3184.64 4446.84 5206.33 5530.49 5065.26 5660.55 4304.41 6789.23 3989.7 4157.29 5107.0 4777.03 4246.61 6212.15 3684.56 6813.72 6028.09 5327.75 5452.36 4896.65 6486.37 5561.74 6083.28 6100.73 4198.94 4745.79 5470.04 4908.75 4211.82 6556.26 5684.25 5438.92 4244.49 5036.98 5513.8 5188.53 4521.75 3429.57 5569.2 5350.88 4642.74 6735.97 5305.59 5416.45 6114.89 4330.58 5754.6 3288.01 4904.51 2202.77 6870.97 5751.15 5950.88 4149.55 5474.01 6201.86 7554.58 3380.69 4140.4 3639.44 5446.4 4725.01 5966.75 5510.9 3657.69 4505.28 4883.63 3492.83 4971.29 6280.13 3684.15 5832.29 4438.76 6006.89 6456.58 4618.73 3814.65 4159.81 3965.3 5244.98 5792.98 6592.93 4385.81 6350.71 4034.05 6436.74 2460.79 4456.11 4653.83 6063.64 4986.71 7382.3 4405.42 3598.08 2995.67 4599.81 4022.56 5522.21 5698.23 5810.77 5828.35 5089.1 2711.19 5876.72 4028.32 5236.43 3809.69 4099.92 4771.13 3208.96 7051.9 5285.07 4680.14 4608.41 4732.09 4184.23 4833.46 3988.3 5857.79 5750.07 6136.49 4642.66 6543.13 5276.7 5149.72 4687.64 4752.14 4378.3 4419.71 5411.02 4950.97 5037.06 4989.56 5175.29 5842.56 4863.96 4094.73 6200.54 5148.58 4652.01 3548.39 3583.49 3673.28 5421.64 5052.84 4858.51 3375.28 4366.74 5625.65 4603.5 4647.67 4214.44 4481.76 5375.12 5378.23 5452.78 4787.97 4356.36 3746.36 4892.44 4741.28 5069.89 4215.2 2205.51 5361.87 6502.97 4783.07 4609.02 4946.23 4852.58 4532.7 4504.86 5975.23 4473.29 4788.08 6163.54 5212.37 2628.22 6003.78 5058.51 4901.29 4124.76 4050.03 4775.04 4120.07 4813.33 4952.52 4882.66 3840.21 6746.66 5410.33 4954.76 3908.56 4844.83 5244.78 3636.15 5652.87 5483.7 5135.63 6384.7 4355.83 5952.38 5351.86 3896.27 6056.87 5230.02 5307.35 4342.18 5166.89 5491.63 5725.37 3868.62 6102.98 5138.33 3743.76 3425.69 6711.21 5510.45 4730.14 2606.