# vtk DataFile Version 2.0
Time step 42
ASCII
DATASET UNSTRUCTURED_GRID
POINTS 5000 float
202703.0 336515.0 0
207402.0 334226.0 0
208860.0 337595.0 0
213692.0 335088.0 0
281484.0 336765.0 0
288220.0 333699.0 0
297464.0 334832.0 0
202416.0 341540.0 0
206300.0 339294.0 0
211413.0 340129.0 0
216668.0 340021.0 0
221788.0 338584.0 0
227494.0 340570.0 0
231058.0 338569.0 0
235526.0 338980.0 0
240826.0 341441.0 0
266570.0 340556.0 0
271601.0 338066.0 0
273048.0 342297.0 0
277366.0 341365.0 0
287277.0 339486.0 0
292217.0 342137.0 0
297177.0 340098.0 0
203308.0 346706.0 0
207656.0 343406.0 0
213865.0 344509.0 0
219400.0 344888.0 0
223616.0 342658.0 0
225156.0 346635.0 0
229317.0 344880.0 0
231811.0 341835.0 0
235408.0 344560.0 0
240207.0 346745.0 0
245206.0 345571.0 0
249112.0 347655.0 0
250780.0 342406.0 0
257097.0 343164.0 0
261901.0 342556.0 0
262027.0 346936.0 0
265777.0 345270.0 0
269942.0 344686.0 0
274503.0 346361.0 0
279159.0 345953.0 0
282626.0 342730.0 0
284360.0 346435.0 0
286770.0 344283.0 0
289902.0 346001.0 0
296660.0 346143.0 0
201906.0 351137.0 0
206262.0 351400.0 0
209949.0 347912.0 0
212704.0 352328.0 0
216105.0 348784.0 0
221494.0 350267.0 0
224474.0 353143.0 0
227963.0 350953.0 0
231973.0 348110.0 0
232589.0 352243.0 0
236196.0 349568.0 0
240867.0 352014.0 0
246204.0 350991.0 0
253746.0 347519.0 0
251094.0 351258.0 0
258064.0 347755.0 0
256130.0 351775.0 0
260792.0 351209.0 0
265794.0 350113.0 0
269516.0 352796.0 0
270252.0 348746.0 0
273648.0 351376.0 0
277678.0 349684.0 0
282065.0 349542.0 0
286874.0 349263.0 0
290758.0 349262.0 0
293964.0 350426.0 0
202878.0 355400.0 0
208916.0 356386.0 0
217447.0 353016.0 0
221454.0 356107.0 0
226850.0 355840.0 0
230878.0 355439.0 0
234163.0 357423.0 0
236328.0 354040.0 0
239029.0 358145.0 0
243925.0 356060.0 0
248625.0 355546.0 0
253213.0 355330.0 0
258244.0 356354.0 0
263872.0 355658.0 0
268762.0 356436.0 0
271593.0 355152.0 0
274790.0 355617.0 0
279426.0 354314.0 0
284916.0 354034.0 0
290182.0 353402.0 0
287694.0 357649.0 0
291371.0 357234.0 0
296229.0 355163.0 0
202018.0 359576.0 0
202030.0 363341.0 0
205959.0 360848.0 0
211218.0 361837.0 0
215376.0 357891.0 0
220182.0 361453.0 0
224975.0 360440.0 0
230188.0 359880.0 0
235237.0 362647.0 0
242748.0 359655.0 0
242863.0 362584.0 0
246531.0 360264.0 0
251183.0 359821.0 0
254757.0 358537.0 0
253754.0 364104.0 0
256872.0 361177.0 0
261326.0 360950.0 0
267275.0 361635.0 0
272077.0 358751.0 0
272357.0 363305.0 0
277405.0 360287.0 0
282854.0 358482.0 0
282003.0 362147.0 0
286144.0 361652.0 0
290164.0 360344.0 0
293573.0 359720.0 0
297552.0 360712.0 0
202302.0 367105.0 0
207273.0 365794.0 0
212764.0 367044.0 0
216183.0 363601.0 0
221218.0 368687.0 0
223549.0 365633.0 0
227959.0 367863.0 0
227837.0 364096.0 0
230997.0 364177.0 0
239723.0 363731.0 0
237727.0 368278.0 0
242577.0 366993.0 0
245886.0 364492.0 0
249369.0 363920.0 0
251153.0 367398.0 0
258475.0 365466.0 0
263358.0 366066.0 0
269442.0 366827.0 0
272640.0 368083.0 0
275281.0 365823.0 0
278256.0 364525.0 0
278118.0 367211.0 0
280173.0 365500.0 0
283498.0 365796.0 0
287100.0 365681.0 0
290372.0 364022.0 0
294254.0 362876.0 0
293844.0 366997.0 0
297853.0 364803.0 0
298531.0 371007.0 0
201936.0 370861.0 0
200440.0 377431.0 0
201671.0 373827.0 0
205571.0 370070.0 0
210279.0 374021.0 0
209636.0 370266.0 0
214873.0 372404.0 0
217827.0 367912.0 0
220058.0 372376.0 0
224882.0 370989.0 0
229974.0 371752.0 0
232442.0 367895.0 0
234732.0 372690.0 0
239369.0 373223.0 0
243321.0 371594.0 0
247200.0 368742.0 0
247319.0 373647.0 0
251103.0 371648.0 0
255233.0 369084.0 0
260291.0 370627.0 0
263849.0 373857.0 0
266189.0 370267.0 0
271225.0 372136.0 0
276042.0 370352.0 0
280389.0 368808.0 0
280022.0 372861.0 0
284452.0 370254.0 0
289021.0 368582.0 0
291760.0 371503.0 0
287560.0 372790.0 0
295910.0 370433.0 0
298382.0 368146.0 0
294565.0 374171.0 0
297933.0 373935.0 0
300623.0 378514.0 0
194132.0 381615.0 0
197483.0 379683.0 0
197188.0 383201.0 0
203367.0 376521.0 0
202662.0 379783.0 0
200340.0 381350.0 0
205932.0 374220.0 0
206193.0 379649.0 0
209093.0 377472.0 0
213384.0 378167.0 0
218448.0 377155.0 0
223045.0 376180.0 0
227202.0 374984.0 0
231780.0 377309.0 0
237621.0 377988.0 0
243327.0 376602.0 0
248358.0 377831.0 0
250732.0 375406.0 0
255205.0 374965.0 0
260039.0 375797.0 0
267337.0 374894.0 0
263743.0 378324.0 0
268256.0 379504.0 0
272500.0 377080.0 0
276214.0 375063.0 0
279878.0 377512.0 0
283485.0 374841.0 0
286365.0 376704.0 0
287735.0 379840.0 0
290357.0 376391.0 0
293600.0 378738.0 0
297359.0 377207.0 0
297185.0 380853.0 0
299657.0 382439.0 0
304057.0 381605.0 0
308394.0 383200.0 0
181228.0 389018.0 0
186912.0 386181.0 0
190692.0 384266.0 0
189827.0 388313.0 0
193817.0 388951.0 0
194518.0 385524.0 0
199542.0 383769.0 0
198014.0 386963.0 0
203331.0 383111.0 0
201280.0 385786.0 0
205000.0 385787.0 0
207865.0 383619.0 0
210042.0 380476.0 0
212394.0 383652.0 0
216968.0 382082.0 0
219569.0 386116.0 0
222102.0 381089.0 0
226610.0 379276.0 0
223516.0 385454.0 0
230024.0 381888.0 0
226607.0 383341.0 0
234072.0 382533.0 0
238293.0 383280.0 0
241848.0 381223.0 0
246167.0 380867.0 0
249638.0 383670.0 0
252408.0 379827.0 0
258196.0 381566.0 0
264019.0 383130.0 0
268078.0 384689.0 0
272299.0 382004.0 0
276441.0 379826.0 0
275988.0 384788.0 0
280411.0 382956.0 0
283474.0 379632.0 0
286135.0 383568.0 0
290226.0 381352.0 0
290226.0 386055.0 0
293982.0 383761.0 0
297618.0 385000.0 0
297974.0 389088.0 0
301406.0 385712.0 0
305246.0 385710.0 0
308387.0 388340.0 0
311901.0 385820.0 0
315482.0 388493.0 0
173374.0 394267.0 0
175917.0 392520.0 0
178993.0 391294.0 0
183105.0 391025.0 0
181056.0 393460.0 0
184039.0 387784.0 0
184560.0 392733.0 0
186995.0 390941.0 0
191264.0 391067.0 0
194841.0 392164.0 0
198605.0 390416.0 0
202536.0 388225.0 0
206079.0 388292.0 0
203427.0 392183.0 0
209107.0 387241.0 0
207656.0 390897.0 0
211721.0 387519.0 0
211014.0 390970.0 0
214985.0 387803.0 0
218390.0 391174.0 0
222939.0 390146.0 0
226495.0 387214.0 0
227799.0 390832.0 0
230642.0 386265.0 0
235823.0 387914.0 0
239788.0 389623.0 0
244642.0 385295.0 0
240411.0 386502.0 0
242952.0 389490.0 0
246220.0 390080.0 0
248387.0 387808.0 0
253730.0 384398.0 0
252146.0 388532.0 0
257103.0 388539.0 0
261251.0 386168.0 0
264821.0 387883.0 0
268230.0 389733.0 0
271756.0 386898.0 0
271534.0 390959.0 0
274935.0 389887.0 0
278883.0 388471.0 0
283090.0 387101.0 0
285680.0 391191.0 0
287062.0 387865.0 0
290424.0 391135.0 0
293807.0 388133.0 0
294436.0 391882.0 0
303092.0 389766.0 0
302583.0 393337.0 0
307314.0 392556.0 0
310723.0 393866.0 0
312175.0 390770.0 0
313985.0 392503.0 0
319554.0 390784.0 0
316651.0 393009.0 0
323195.0 392149.0 0
326021.0 393119.0 0
167843.0 397724.0 0
164877.0 399379.0 0
170581.0 395708.0 0
171362.0 399041.0 0
177772.0 395118.0 0
175075.0 397371.0 0
180170.0 396920.0 0
182211.0 398642.0 0
183512.0 395161.0 0
186590.0 394420.0 0
184930.0 397930.0 0
187693.0 397032.0 0
190488.0 393891.0 0
191522.0 398023.0 0
195231.0 395461.0 0
199128.0 394614.0 0
198962.0 398252.0 0
202684.0 396938.0 0
207082.0 395232.0 0
211098.0 395289.0 0
214444.0 392888.0 0
216844.0 395391.0 0
220607.0 394884.0 0
225050.0 394832.0 0
229369.0 395301.0 0
231926.0 391448.0 0
235162.0 393482.0 0
238283.0 392829.0 0
241550.0 392480.0 0
245173.0 394202.0 0
249416.0 392276.0 0
254178.0 394189.0 0
259295.0 393774.0 0
261590.0 390388.0 0
264900.0 393482.0 0
269601.0 393905.0 0
273679.0 394060.0 0
277734.0 393476.0 0
281264.0 395143.0 0
284202.0 394311.0 0
281673.0 391532.0 0
287661.0 395433.0 0
290892.0 395050.0 0
293939.0 395958.0 0
298678.0 394308.0 0
301867.0 397475.0 0
305724.0 395658.0 0
309586.0 397085.0 0
313838.0 395820.0 0
314353.0 399080.0 0
318123.0 395842.0 0
318315.0 399132.0 0
321299.0 394980.0 0
324604.0 395421.0 0
321851.0 398424.0 0
324717.0 398258.0 0
328134.0 396052.0 0
328722.0 399789.0 0
331595.0 396882.0 0
156871.0 404647.0 0
162347.0 401304.0 0
159599.0 402907.0 0
167474.0 401683.0 0
164151.0 403783.0 0
170961.0 403885.0 0
178116.0 399961.0 0
174521.0 402048.0 0
177435.0 404394.0 0
181405.0 401822.0 0
184922.0 400814.0 0
188236.0 400813.0 0
192254.0 401572.0 0
195470.0 399231.0 0
194595.0 402973.0 0
197519.0 401973.0 0
201234.0 400922.0 0
205242.0 399880.0 0
209196.0 399094.0 0
211455.0 401627.0 0
213643.0 398015.0 0
217772.0 399159.0 0
222131.0 399472.0 0
226679.0 399479.0 0
230669.0 399523.0 0
232960.0 396168.0 0
234091.0 399598.0 0
236918.0 397426.0 0
240033.0 400519.0 0
240842.0 396454.0 0
244085.0 399058.0 0
249183.0 397776.0 0
253483.0 399389.0 0
257801.0 398719.0 0
261952.0 397159.0 0
265202.0 399330.0 0
267893.0 397170.0 0
272046.0 398095.0 0
268674.0 401114.0 0
275861.0 397080.0 0
276071.0 401469.0 0
279171.0 398095.0 0
282177.0 400021.0 0
283909.0 397766.0 0
287165.0 399492.0 0
284774.0 402269.0 0
291127.0 399006.0 0
297025.0 397866.0 0
295144.0 400533.0 0
299466.0 400450.0 0
305069.0 398982.0 0
303744.0 401429.0 0
307642.0 399493.0 0
311104.0 400309.0 0
307781.0 402630.0 0
312027.0 404292.0 0
314970.0 402416.0 0
318840.0 402988.0 0
325471.0 401222.0 0
322528.0 401362.0 0
325990.0 404712.0 0
329233.0 403015.0 0
337005.0 400701.0 0
333553.0 399797.0 0
337524.0 403527.0 0
339894.0 402292.0 0
342047.0 404216.0 0
151154.0 408073.0 0
148675.0 410103.0 0
154121.0 406784.0 0
156208.0 409054.0 0
161279.0 405032.0 0
158906.0 406739.0 0
161960.0 407157.0 0
167449.0 405159.0 0
165078.0 407099.0 0
172062.0 408238.0 0
169115.0 407547.0 0
174086.0 406024.0 0
176416.0 409064.0 0
181175.0 406348.0 0
185348.0 404301.0 0
186561.0 407918.0 0
190003.0 404561.0 0
190372.0 408869.0 0
194375.0 406370.0 0
199019.0 405323.0 0
201836.0 408094.0 0
203319.0 403869.0 0
207444.0 403211.0 0
204987.0 406198.0 0
207726.0 406994.0 0
211221.0 405642.0 0
215030.0 402271.0 0
215688.0 406280.0 0
219482.0 403608.0 0
222137.0 406328.0 0
224187.0 403631.0 0
228105.0 404002.0 0
232255.0 403373.0 0
236449.0 401977.0 0
234904.0 406320.0 0
239260.0 405120.0 0
242970.0 402994.0 0
243069.0 406491.0 0
246685.0 402256.0 0
250816.0 403324.0 0
[...]
POINT_DATA 5000
SCALARS Radius float 1
LOOKUP_TABLE default
5415.48 5120.0 2356.98 6182.6 6810.52 5840.26 5073.35 4834.9 3863.18 4998.37 5492.18 5258.36 5061.3 3163.97 5812.43 5906.14 5733.48 5580.89 3588.44 5645.7 6110.27 5561.06 5670.04 6044.04 5085.53 5351.6 5867.73 3951.75 5013.56 4499.64 3642.12 5542.27 5122.66 5484.19 3557.27 7513.1 5254.28 4436.4 4517.56 4182.53 4672.91 5176.86 4366.19 5553.16 2938.66 3672.51 4008.92 6716.79 3850.77 5325.36 5484.83 5538.89 4715.55 6059.59 2720.68 5701.86 4375.68 4238.81 5054.98 6030.06 5170.02 4688.68 4927.31 4402.52 5185.34 4432.58 5903.42 3955.56 3761.32 5292.64 4118.05 5065.13 4940.78 3615.22 4380.59 5546.39 6759.9 4730.36 5926.61 4955.55 3563.63 4345.55 4468.59 5885.03 5325.02 5200.76 4862.64 5205.43 6684.56 3968.64 2635.86 4385.06 6166.5 5936.02 5305.17 4231.61 3379.84 7613.27 4133.88 4094.62 5945.65 5418.62 7021.47 5416.38 6051.14 5836.15 6704.06 2837.58 3871.88 5246.2 5017.13 3673.74 5279.39 4827.23 6116.18 7447.37 4688.67 4924.6 7184.19 4290.3 3867.67 4861.08 3942.53 3607.45 4951.03 4665.12 6483.19 6230.49 5493.32 3641.64 5740.68 4277.89 4195.44 3261.21 3653.41 6496.85 5600.93 3856.01 4390.66 4124.71 4911.47 5803.39 4381.97 3255.82 4733.32 2899.43 2812.98 2924.37 5399.73 4003.05 4827.82 3589.27 5759.91 4333.2 3038.33 3936.02 4780.03 3383.4 4927.02 5109.54 4174.52 7054.71 4601.27 5489.43 5747.75 4796.33 5539.32 5360.19 4794.96 4874.39 5541.59 4839.34 5083.08 5728.85 6337.56 3998.5 5863.59 6257.19 5242.73 4065.69 5603.15 5390.22 4805.87 5227.21 4712.33 3997.1 3260.67 5123.52 4295.38 5529.52 5252.48 5495.39 3554.9 3856.1 4044.71 3996.0 5980.74 5816.2 3829.13 6458.82 5527.54 5573.7 5054.25 7325.81 6425.26 6186.19 4840.01 2980.99 6834.49 5525.39 4024.3 5938.34 6394.38 5555.28 4737.14 4686.65 4695.45 4660.72 3888.21 6038.78 5697.78 4392.68 4667.36 4091.31 7199.21 5255.32 4049.23 5337.48 6124.89 5481.78 5542.21 5708.81 4015.92 5043.05 4487.31 4002.16 4138.16 5693.81 3091.3 5789.98 6138.47 6302.8 5697.4 4727.62 4270.95 4055.8 5206.78 5280.17 5028.96 5143.58 4484.76 5152.36 5611.2 7933.0 5173.87 5380.13 5118.27 5169.36 5932.23 5834.74 5556.96 6052.7 3921.18 5891.05 6902.81 4254.17 6644.76 5615.42 4523.7 7565.34 6037.08 6756.95 4651.28 4382.74 5601.05 3586.91 4516.43 4929.8 3103.0 5637.59 3307.12 4937.14 5924.89 4778.34 3486.22 6894.71 4684.5 4414.54 2540.31 5120.49 6029.66 5409.61 6038.2 4005.44 5713.22 5555.88 6732.43 3183.98 6362.12 3866.16 4524.28 3778.1 4511.82 4220.65 5826.64 6820.42 4455.12 4894.16 4896.52 5711.87 3372.79 4941.22 5791.61 5788.23 5581.75 3798.62 6392.01 3666.57 5308.1 6372.62 4937.02 5629.19 5090.24 5091.39 2240.39 6324.23 5096.78 4727.24 3320.52 4685.34 4329.05 4151.94 5927.43 4384.42 6355.42 4362.19 3693.63 4948.92 3115.91 4493.48 4749.8 6084.86 5810.84 5478.92 5551.36 4467.94 4850.81 6038.14 5201.36 5262.61 4306.53 5094.81 5972.06 4312.67 5861.71 4359.04 5017.78 3794.63 6175.81 4727.24 6959.81 4829.35 4816.2 6321.41 4751.02 5184.56 5282.64 4715.72 3369.13 4479.66 5367.2 3043.85 5461.13 6730.19 4907.89 5655.21 4786.6 5923.5 5740.84 4612.68 5530.87 5293.9 4129.43 4973.83 3912.37 6142.94 6342.25 3843.58 4792.73 4931.38 4736.58 6082.81 5110.37 6327.9 5690.56 5492.26 5244.78 5762.84 3937.74 5082.6 4230.54 5094.44 3748.24 4655.49 4933.21 5375.47 4723.12 4809.42 5024.9 5659.17 6135.57 5998.38 5423.8 4270.24 3417.33 4989.15 4164.13 5015.69 4947.52 6677.09 4305.57 5813.4 5201.67 4424.7 4089.76 5526.55 4754.05 3192.41 6084.93 4987.87 3315.57 4669.66 4808.52 4764.96 5607.24 3599.45 4726.76 5839.13 3735.44 4907.06 4073.93 4645.41 5163.9 6043.3 4433.59 6445.94 4281.49 4310.18 5542.14 4218.06 4602.25 6691.39 4270.53 4194.5 5191.63 4501.51 5379.87 5513.6 4901.41 3485.26 4556.36 3240.09 3191.99 5664.98 4048.37 4659.59 4220.88 6519.71 6640.13 5478.47 5351.39 6142.37 5119.37 6061.47 6163.38 4997.27 4566.18 4964.09 3459.9 4093.08 5543.27 4717.05 5856.11 5287.2 4234.94 4562.29 5013.13 5080.66 4926.42 5110.45 5248.77 4642.34 4083.97 4520.1 5874.89 4293.03 4528.09 4165.81 4389.21 3791.79 4128.98 4925.44 4951.47 5246.61 4307.28 5215.15 5804.71 5020.12 5046.33 5727.3 5053.92 4242.52 6352.26 3057.03 3847.38 5495.68 3818.59 5489.34 5952.75 5708.14 5537.72 4320.28 6332.36 7134.64 4931.53 4790.08 5480.13 5082.47 4187.56 5344.25 4840.84 5344.0 4593.7 4478.15 4043.57 5925.6 3708.04 6013.14 5138.31 4602.86 5264.06 4621.75 4551.24 3688.8 3369.23 5358.59 4548.16 5449.18 4515.71 4322.15 4714.54 3092.35 3629.96 5210.03 3320.11 6022.17 4583.31 3982.23 4503.89 5806.08 5243.29 4853.39 4449.22 5628.24 3327.49 4109.88 5992.26 3960.8 4980.85 5070.39 5714.58 3329.99 5208.32 3296.27 4607.02 5153.74 3895.51 6673.96 3556.85 6291.51 5882.89 6246.22 5370.52 4188.32 4100.38 3697.96 4739.42 5538.93 4899.11 4745.45 5281.28 2631.9 5356.51 4863.72 4087.15 4143.08 5002.48 6623.85 4262.82 3920.42 5102.36 6122.55 5978.9 2739.94 6308.71 3629.62 4997.27 4716.19 5135.69 4301.06 3456.98 6045.46 4763.45 3815.26 4150.99 4216.92 3929.19 3771.48 4107.03 5681.38 5198.77 5147.67 4138.42 5987.17 4292.06 5011.31 3979.82 5006.58 2765.2 4581.13 5586.81 4219.07 3610.4 3856.59 5413.79 6387.01 5367.52 6202.55 5025.39 5030.91 5893.5 4547.19 5507.24 6851.54 4336.42 5570.3 4306.11 3402.32 7589.94 3130.65 5004.67 5365.89 4511.54 5409.33 5196.0 4923.9 4973.78 4613.31 3947.47 6119.09 5091.68 4713.25 4204.84 6243.0 5069.25 5048.89 3991.03 3161.47 5441.96 5174.89 3435.9 4288.3 4652.29 5774.81 5344.77 4723.48 5027.98 5097.87 4278.07 7267.18 6255.18 4277.88 4668.71 4758.21 7500.97 3948.23 5228.18 5787.31 8332.24 6155.31 4342.9 4553.56 4223.33 5911.67 5514.76 6695.82 4290.14 6405.76 4877.67 4020.32 5445.87 4245.72 4704.72 4571.7 4177.94 4742.68 4502.5 5922.5 4271.69 3970.25 3633.87 2775.04 4850.01 5643.58 5577.04 6318.18 4481.53 3948.17 5077.33 4746.52 5572.95 6338.89 5584.06 7111.16 3817.13 5023.15 3844.9 4377.07 3695.36 5101.59 3848.93 3813.22 6020.48 5935.47 5903.66 4528.49 5419.37 4466.03 5275.32 4898.94 5985.29 4178.15 4694.83 4733.04 5788.66 7531.29 3903.75 4755.47 5935.03 6390.78 7435.25 6826.57 4788.87 4495.87 3746.31 6022.72 5498.32 5527.33 5346.27 6475.1 2691.29 6256.02 2845.98 5320.92 7228.46 6362.14 6719.88 5065.11 5978.82 3927.99 5069.84 5329.64 4051.44 3323.28 6049.55 5835.78 5709.62 3498.2 6562.18 4541.21 5908.1 6048.7 4344.58 5896.46 5634.83 5495.84 4164.68 6268.1 5782.6 4862.21 5113.21 5499.11 4011.77 4527.08 5347.48 4374.35 4810.12 4138.46 3821.72 5215.05 4986.77 6035.6 5137.34 5330.45 5423.0 5125.78 3824.16 3689.45 3868.18 6723.16 3686.21 5372.61 5402.24 6480.17 6445.22 3963.86 4564.34 4871.44 5076.35 6375.99 5200.05 5234.29 4091.8 4645.58 5313.66 2651.49 5512.23 4711.62 5349.31 4247.23 4268.65 4649.22 5509.42 4354.08 5936.36 4520.62 5229.48 5475.7 4485.99 5127.16 5475.8 5314.69 4244.99 6050.81 5543.46 4249.46 5965.81 3702.37 4643.31 2330.66 4177.19 6917.52 4969.21 5402.21 4880.14 4989.09 4982.31 5289.52 5269.18 4406.1 4305.43 5034.59 4942.77 5080.18 5868.82 5266.5 4050.9 4523.88 4066.38 4241.89 5054.74 4099.77 5941.72 4981.9 5794.24 4127.74 4537.32 3066.13 4302.5 2476.04 5105.16 4156.38 6006.16 6009.88 5050.65 5022.8 5316.75 6133.92 3784.5 4178.4 3719.84 5669.65 5820.48 7034.11 6261.42 2586.12 6125.34 5965.78 6396.74 6898.19 5526.14 6449.45 5198.29 3975.31 4044.45 5344.43 5262.19 5045.38 4373.47 6034.41 5350.88 5130.91 4948.5 4519.22 4527.02 4531.14 5013.42 3838.56 5651.07 6248.81 5872.05 5273.35 4853.02 6259.23 5181.4 5670.2 4114.24 5166.79 2976.22 5394.55 5094.52 4256.43 4946.74 2682.24 5928.32 5415.19 3950.63 4612.62 4016.18 5526.75 5435.74 6385.23 5327.45 5560.26 2983.99 6185.89 3997.96 4750.17 5660.85 3460.94 3990.25 3691.0 3758.07 4752.51 3587.05 6229.37 6718.19 5314.85 4307.48 3848.54 5941.4 5450.44 5331.02 6510.17 4263.33 4454.63 5592.32 5912.61 3279.1 4978.31 4403.98 4948.98 4414.48 5163.02 4656.78 5991.09 4678.38 5126.91 5448.61 4827.33 7055.53 3937.08 5513.57 5013.67 5729.23 5934.22 3780.23 5624.49 3471.03 4359.62 5253.55 3745.84 5011.84 6057.22 6946.21 5062.71 5433.8 4497.59 5252.34 5975.63 4274.61 2965.79 4410.55 7099.43 4287.63 5315.4 4516.28 3627.82 5678.96 6070.58 4244.9 4285.32 5490.43 5452.83 5022.28 4959.34 5197.52 5178.99 5383.07 4790.78 4591.87 4247.15 6552.22 4602.85 4962.77 6101.92 5323.3 5088.44 4998.21 3457.48 4662.56 3931.07 3405.98 5417.15 3688.16 4681.72 4945.39 5996.33 5661.62 6631.19 3619.07 4467.04 4275.57 5626.61 5817.25 2614.4 6363.92 6205.93 4439.35 5830.72 6184.4 3828.81 4373.45 4236.14 5733.62 4407.87 5282.91 3797.33 4425.84 7256.35 4871.96 4800.69 5742.65 4863.23 4402.67 5381.16 5565.13 4560.84 5227.52 6086.96 4092.24 4729.43 5233.78 4562.74 5776.57 3942.07 7144.24 7443.72 5133.97 3600.43 6600.94 5371.02 5260.34 5206.48 4709.35 6586.45 5826.04 5876.71 5226.0 5339.78 3095.48 4861.06 4166.08 6481.79 3979.26 5960.66 6608.73 3999.48 4203.26 5188.81 4730.41 5696.88 5690.26 4156.2 4289.17 5564.02 6444.77 6314.07 5776.37 3921.08 4190.31 5486.68 6048.86 6894.26 4986.51 5339.38 6169.11 5615.35 6422.84 4027.09 4502.18 5379.09 5210.48 7552.94 4051.34 3627.55 6239.84 4635.6 4256.67 5865.39 4427.28 6079.11 3082.32 6430.39 7440.72 3658.37 3949.6 5376.71 5703.6 6326.18 4867.08 4266.03 6648.68 4713.74 5407.78 4084.49 5061.98 6632.99 4537.6 4923.24 4419.61 7177.44 5309.98 4563.46 4082.57 5255.18 5282.51 5169.9 3004.16 4460.92 5945.89 4042.28 4105.55 6566.1 3555.86 6386.78 4470.61 6193.35 4631.83 6887.27 3701.27 6008.49 4806.34 5683.26 5598.74 4906.82 5131.24 4788.58 6155.1 5196.67 6496.67 5474.8 4750.78 4373.3 5762.59 5029.78 5320.28 5374.51 5224.12 4850.14 4569.12 4796.58 4298.67 5873.69 4962.09 6222.42 5654.31 5470.77 4643.85 3923.03 4004.04 5607.14 5082.74 5411.85 6915.83 4844.57 6072.45 5092.37 4027.46 4470.98 3901.8 5759.46 5083.41 7055.42 3836.45 5100.25 5683.61 5805.86 4049.02 5311.03 4470.4 4611.53 5255.12 4285.66 4896.11 4318.48 5172.53 4135.62 6132.95 5801.99 4860.33 5534.94 3685.13 7644.38 3312.06 5180.76 6004.68 3361.26 6799.4 4409.63 3661.9 5370.85 5949.46 3178.54 4765.02 3776.94 5629.39 4448.13 5070.29 4807.28 2261.36 5075.55 5280.69 4220.03 6923.84 5449.46 6179.96 5703.07 6113.54 5147.36 4662.43 6260.79 4043.66 3963.76 5528.53 6553.94 5726.66 5460.65 4767.78 5235.17 4779.5 4340.76 4421.12 4435.36 5254.49 6065.22 4996.99 4221.28 4456.39 4384.88 4896.39 6081.14 5480.83 5653.9 4220.46 4287.53 5046.21 5612.21 4929.14 5894.61 5687.83 5004.23 6442.69 6320.71 4648.04 6262.72 3527.05 6607.87 3365.82 3664.11 4163.5 7092.87 4123.6 4538.95 4970.88 6739.08 7042.12 3637.61 4471.58 5463.38 6098.14 4472.17 5750.71 4938.74 3474.39 4831.47 6062.05 6939.12 4735.33 4413.85 3999.94 6171.13 4864.22 2395.5 5511.88 5941.61 4512.11 4933.65 6098.1 6248.6 5443.58 4558.46 6401.43 5346.68 5296.29 2681.29 5094.48 3872.61 5576.92 4238.4 6408.83 3930.79 5266.22 5226.97 5754.18 5132.68 3418.99 4480.95 5278.36 6218.95 5521.25 5222.16 5107.23 5136.08 5558.68 4010.57 5246.47 2684.03 6157.04 4768.61 4522.21 5506.19 6719.94 4950.67 5227.59 6166.29 5453.6 5294.77 5409.63 3077.84 4709.05 4630.82 4813.08 6799.88 3062.43 5426.78 2967.38 5652.0 4159.35 5463.41 5225.33 4237.98 4929.75 6045.22 6649.96 4303.19 5514.84 3633.79 4256.57 3914.2 5421.53 4607.85 5937.08 6070.3 5128.57 6000.7 5945.08 3979.54 5139.5 4968.03 7493.3 4814.55 5833.06 5944.09 5698.77 3464.83 6515.84 4143.78 5724.64 5965.15 4925.63 4763.66 4666.81 4888.6 4780.2 4797.52 6326.39 6643.85 6343.14 4020.95 5501.93 5462.21 6313.06 5945.21 3493.7 6345.13 4200.03 6470.3 4719.7 5516.95 5313.22 5563.79 4406.4 3905.51 6853.85 3493.47 4020.4 3497.9 4596.75 5782.48 4031.78 5950.04 5708.99 4231.83 5687.85 2435.33 6333.29 4558.47 5020.71 5731.57 5997.88 5662.55 5839.71 4360.23 6234.32 5365.24 4004.35 5293.51 4763.96 5008.63 4270.74 6293.89 6595.03 4993.35 4558.15 4983.39 5366.52 4690.55 5533.72 5533.42 4802.32 3678.08 4599.38 5518.57 4187.31 6191.29 5463.48 7422.36 3240.51 5161.01 4527.99 4298.15 4376.7 4628.4 5190.61 5832.37 6051.83 4642.93 3973.12 4263.16 6024.75 6109.49 5860.67 4540.86 5990.52 3764.1 4835.83 5604.35 6477.91 3091.67 6439.37 4614.3 4081.97 5401.99 5134.39 5784.3 5769.98 6088.68 2221.99 4643.56 4135.08 5620.74 5233.29 5604.21 3169.67 4612.06 5204.04 5304.13 3361.92 3306.14 4863.79 5490.58 5395.14 4702.06 2477.07 4923.41 5117.47 2990.77 3163.78 4497.31 3293.56 4305.16 5882.65 5092.28 4739.14 5078.86 4918.77 5163.55 4636.5 4819.73 6817.32 3382.7 6471.55 6263.44 4319.79 4863.27 5960.56 5122.63 5774.97 5862.86 6049.79 5374.98 5226.56 5274.19 5599.49 5452.42 4097.57 5017.5 5328.22 4151.76 4216.17 6484.17 4721.02 3546.71 4254.37 3374.08 5768.57 5564.23 3735.24 6574.95 4074.48 3614.96 4477.04 3886.68 5703.74 4747.55 5737.92 3056.7 3755.95 5591.76 4585.31 4586.19 4446.06 6625.18 3450.93 5323.91 5097.45 4185.61 5737.75 2761.07 3778.02 6552.21 5417.8 5146.37 7132.12 5227.02 4836.16 5300.96 5151.11 5730.33 5545.46 4543.1 6550.44 8325.01 3764.06 4440.81 5941.9 6642.76 5829.22 4497.78 5567.93 5987.42 5433.65 5332.65 4442.22 6451.33 5413.31 6316.56 4332.87 6420.81 4715.58 3317.83 4450.7 5580.92 3532.3 5151.52 5973.33 3583.21 4347.74 5442.32 5067.46 4863.01 3580.58 5356.79 4011.37 4778.82 4312.56 6124.08 5467.84 4750.58 6710.88 3967.48 6667.68 6213.04 4721.32 3830.46 6413.11 5274.14 5529.42 4434.19 5257.12 4903.82 5100.1 4940.42 3954.91 4371.99 3703.1 4946.42 6090.91 3561.29 5085.71 3295.83 5923.4 4963.34 5644.82 2965.01 6413.02 3492.19 4584.5 4118.84 5548.29 6766.43 5916.16 2315.64 4703.08 4390.41 4890.5 6113.95 3731.84 3981.07 4050.08 4901.07 5186.3 3436.15 5711.11 5005.85 4575.94 5325.44 4938.72 5021.88 5956.65 4188.87 4498.25 5151.21 5398.64 6817.57 3573.73 6853.04 4745.43 5831.96 5464.68 4475.83 2685.81 4510.8 5889.35 5010.04 4394.56 4570.98 4275.07 5825.38 4573.72 4047.87 5099.21 5742.47 4917.99 5636.4 4367.78 4350.12 3603.51 5670.0 4232.16 6609.84 4344.51 5135.96 5680.94 3781.77 3834.43 5581.55 5193.01 3474.5 5491.37 3860.83 6348.03 5732.27 4523.39 4792.39 5434.47 5278.56 6917.62 5631.14 4243.79 4343.78 5811.18 5263.3 4008.15 4887.76 4669.06 3012.99 4811.32 6400.08 6184.88 4743.59 5829.32 5208.14 4396.25 3763.05 5092.24 5369.08 4518.04 5291.9 4766.06 4009.62 4874.18 2511.46 2081.58 6505.78 2775.69 5657.36 4785.25 6519.43 3619.79 5029.47 6306.21 5053.95 5926.11 5253.37 5235.11 5767.9 5211.38 6031.67 6515.8 5384.76 6138.12 4428.78 4965.89 5746.28 5659.95 5187.7 4152.85 4082.47 4623.61 4219.78 5081.78 4188.3 4459.28 6116.33 4260.92 5499.39 6250.23 4407.9 4718.54 4440.57 6235.57 5412.31 5203.08 3087.09 5374.07 3623.87 7480.41 6934.37 5163.77 4488.85 3423.15 5010.2 4579.69 3554.48 6496.52 5966.61 4893.49 4388.63 4834.87 5102.75 4597.29 5760.22 4200.09 5938.17 5931.77 4795.43 5097.95 5108.06 4222.4 4693.52 4000.43 4661.03 4568.41 3624.7 3420.08 4912.04 4320.42 4691.91 4539.07 4255.34 5064.79 5480.3 7509.24 5896.26 5388.78 6101.13 5599.7 4163.74 6969.28 3665.95 5698.96 4095.75 3319.67 4298.45 5222.51 4076.59 5164.1 6464.15 5658.37 4707.06 6074.94 4250.88 4222.77 3783.54 3475.67 5268.38 5527.23 7038.89 5146.37 3863.67 4814.12 4013.38 5067.56 6137.8 3352.35 2735.53 5116.6 4909.65 3747.03 6523.86 7693.4 4286.49 4326.48 4437.07 3449.37 5491.9 6405.0 5551.95 4659.16 3918.87 3101.75 5549.49 5423.42 6605.86 5012.5 5435.19 5461.55 5876.64 4270.15 3298.2 6865.76 5424.46 5266.01 2978.76 2040.66 7016.27 6622.11 4689.15 5089.62 3685.13 6790.73 4655.16 5243.43 4741.26 5409.66 5920.32 4537.14 4186.6 5251.4 5551.9 3867.19 4453.64 4345.67 5511.6 5019.93 3885.86 6261.75 5235.29 5177.64 4517.73 4338.08 4541.8 4255.31 6134.99 5453.3 4479.94 3838.47 2588.37 4062.5 5887.15 6736.03 4435.51 8659.64 4588.7 3766.55 5683.95 6027.62 5469.13 5765.42 6123.03 6098.95 4997.83 5453.98 3991.42 5148.08 3718.69 4514.79 3672.21 2216.82 4509.89 6752.75 5269.38 5607.3 4914.45 2928.82 5313.12 4698.87 3984.88 5160.59 5262.35 4732.09 4281.98 7165.9 5344.83 7046.11 3427.63 4863.97 4146.81 6342.48 5756.75 4587.67 5093.82 5951.81 3924.14 6918.35 4296.69 6238.32 6804.79 6471.42 5283.8 5369.5 4428.14 6016.19 4479.11 4124.49 4972.17 6685.4 5699.53 4850.06 6332.01 7044.29 4805.33 7085.01 5980.95 6193.08 6069.3 5887.01 3862.77 5168.35 5388.39 2783.85 4356.49 5335.47 4526.81 3994.07 4219.94 5907.46 6740.71 4264.91 5399.29 5789.55 4633.05 2275.45 4901.2 6522.59 5711.62 4383.56 3562.79 4990.79 7093.13 4953.1 5818.95 6449.64 4857.84 3940.49 4908.49 4962.21 4749.59 5884.9 3468.42 3685.65 4590.55 3876.21 4673.35 5869.4 4916.22 5297.19 3701.16 6022.7 4255.85 5097.69 4765.72 3988.3 5857.79 2908.7 3757.34 4039.91 6415.61 5276.7 4752.14 4378.3 4419.71 4950.97 5037.06 5660.16 5175.29 5842.56 5199.44 4094.73 5191.08 5424.88 5415.85 4199.45 7234.66 6599.66 4055.54 4886.12 6419.12 4233.8 6107.89 4976.12 4446.84 4817.16 5660.55 5653.03 6192.0 4940.28 5885.28 6579.31 3004.34 5323.55 3022.6 5375.1 4811.76 4172.6 5351.56 5498.42 4196.37 3344.57 5318.53 5220.76 6945.98 5138.2 5783.48 4701.5 4449.98 4771.65 4840.44 5439.49 6639.64 5212.43 3687.65 5454.12 4834.3 6348.54 4066.57 5642.35 6372.13 6357.47 5404.01 4891.38 3230.13 5535.91 5714.25 5955.86 6176.67 5325.96 5412.24 5016.02 4920.21 4581.37 4234.18 4049.16 3936.95 6153.94 6836.82 3858.17 4631.99 4740.98 3477.1 3185.39 5128.77 3728.18 7122.87 5633.61 5048.19 4243.26 6799.23 4888.27 4592.15 6487.56 4854.11 5971.22 4998.22 5533.19 4909.31 5417.21 6602.43 4798.17 3568.28 5425.98 5166.79 4516.53 2895.63 4093.99 4122.92 4997.91 5079.22 6464.8 3604.14 4452.54 4684.44 4406.05 4858.44 4680.94 5828.35 5799.69 5571.72 5689.26 3809.69 4771.13 4992.42 7051.9 4940.84 5895.77 4608.41 4184.23 4732.09 4833.46 5750.07 6136.49 6543.13 4642.66 5149.72 4687.64 5469.47 5036.58 4888.12 5329.59 6119.63 4244.21 5411.02 4989.56 5512.16 3197.63 4287.16 3645.12 4863.96 3456.47 5471.74 6200.54 5148.58 4652.01 3548.39 5421.64 4858.51 4207.54 4366.74 3375.28 5625.65 4301.61 4936.96 3184.64 4481.76 5206.33 5530.49 5452.78 5065.26 4304.41 5578.94 3989.7 7610.49 4777.03 4286.17 4246.61 3684.56 6028.09 5452.36 3804.5 6486.37 4638.18 6448.66 5211.6 3556.79 4453.97 3503.41 7317.04 6412.67 7001.83 4504.35 5012.97 4036.91 5589.37 5110.11 6379.14 5216.26 4887.52 5478.95 3851.85 6318.23 4206.98 5156.76 5932.07 6101.57 4793.65 2949.12 4532.89 4533.37 4848.46 2779.99 5742.09 5887.38 5807.46 6942.34 5851.61 3658.05 5478.11 5526.31 5030.15 3644.78 4078.93 5934.82 4501.78 3572.94 5797.36 5001.58 4153.84 5119.86 5089.26 5084.17 4901.44 5415.45 3776.8 5096.43 6156.21 6104.26 5583.61 6063.64 5996.66 4986.71 6479.39 4405.42 3598.08 4599.81 5381.54 5810.77 5089.1 2711.19 5876.72 4028.32 5236.43 3208.96 4099.92 5285.07 4680.14 3858.06 4478.6 4144.57 4083.79 4187.94 4351.38 5550.75 5933.7 4809.67 4757.74 4356.25 5776.96 4209.49 4216.95 5742.74 5464.25 3946.28 3821.94 3498.16 4209.31 5439.9 5486.48 4409.27 4752.9 5301.47 4617.55 4947.24 3875.05 4588.99 4321.21 3540.11 5950.45 4344.34 5713.03 5849.65 3583.49 3673.28 4928.27 5052.84 5297.16 4165.21 4603.5 4647.67 4214.44 5375.12 4787.97 4892.44 4356.36 3746.36 6789.23 4741.28 4215.2 5069.89 4157.29 5107.0 6212.15 6813.72 5327.75 4609.02 4946.23 4896.65 6083.28 5806.31 6100.73 4745.79 5456.71 4908.75 6556.26 3971.08 6204.65 4482.9 4593.7 4349.13 4891.67 6818.91 3503.65 3634.5 6631.28 6571.31 4392.65 6413.15 4058.87 5174.75 5048.55 4984.46 5948.71 5844.72 3856.53 3992.97 5460.89 6040.74 5260.85 2884.65 7228.94 5393.65 4961.99 4648.21 4393.16 3311.29 4549.69 6423.81 6192.77 4312.15 4583.52 6418.11 6015.02 4922.49 5244.22 5585.14 7039.98 4820.17 4729.42 4159.81 5244.98 3886.72 5792.98 6592.93 6350.71 6436.74 2460.79 4456.11 4653.83 5096.24 6171.71 7382.3 2995.67 4668.88 5522.21 4022.56 5027.43 5698.23 3772.3 4855.01 7300.58 4714.83 3608.06 5474.15 7519.2 4884.59 6633.61 6355.68 5217.95 5484.36 4511.7 3953.55 5980.59 4304.63 5263.27 6834.41 5021.77 7248.4 6045.67 3796.15 5466.33 5280.12 4801.8 7216.98 4444.97 5984.81 5721.05 5271.02 7013.17 6329.53 3805.67 4247.69 5718.28 5367.73 4514.39 4640.06 6242.79 6506.86 5088.57 4803.57 5580.34 3852.6 5134.67 5775.31 4110.59 4847.14 3332.49 4215.0 4706.5 5354.66 3950.27 3566.79 5116.66 3629.44 5378.23 5003.78 4981.43 5374.67 4061.6 5473.72 2603.64 2856.55 2205.51 4553.68 5361.87 6502.97 4783.07 3758.22 4757.2 4852.58 5561.74 5975.23 4788.08 4198.94