# vtk DataFile Version 2.0
Time step 74
ASCII
DATASET UNSTRUCTURED_GRID
POINTS 5000 float
220103.0 194856.0 0
228482.0 194966.0 0
233706.0 193751.0 0
273259.0 195401.0 0
279085.0 193370.0 0
197157.0 198934.0 0
203170.0 197619.0 0
206763.0 201157.0 0
210157.0 196806.0 0
215558.0 198822.0 0
220971.0 200289.0 0
225336.0 198165.0 0
232370.0 196863.0 0
229239.0 199662.0 0
237190.0 196556.0 0
242975.0 197028.0 0
249503.0 198266.0 0
255808.0 197561.0 0
259621.0 200417.0 0
263162.0 197873.0 0
268210.0 197885.0 0
273124.0 199929.0 0
277622.0 199385.0 0
283023.0 198085.0 0
288765.0 197128.0 0
295637.0 198865.0 0
301062.0 198726.0 0
196055.0 204193.0 0
200868.0 201657.0 0
200543.0 206240.0 0
203610.0 203011.0 0
205771.0 206212.0 0
211577.0 203045.0 0
216549.0 203748.0 0
225755.0 202794.0 0
233927.0 201117.0 0
230614.0 204764.0 0
239161.0 201614.0 0
244307.0 202539.0 0
248577.0 205528.0 0
252064.0 203051.0 0
256091.0 203183.0 0
265096.0 201710.0 0
261627.0 204280.0 0
270191.0 202645.0 0
274876.0 203989.0 0
281172.0 202840.0 0
284648.0 201898.0 0
284817.0 205799.0 0
287873.0 201875.0 0
289823.0 205609.0 0
291686.0 201666.0 0
296970.0 204683.0 0
302521.0 203882.0 0
194695.0 209458.0 0
200001.0 211406.0 0
210712.0 208370.0 0
215759.0 208291.0 0
221345.0 206085.0 0
226803.0 207946.0 0
231600.0 208951.0 0
235096.0 206083.0 0
236593.0 210423.0 0
240434.0 206934.0 0
245306.0 209375.0 0
253230.0 207051.0 0
250144.0 210838.0 0
257972.0 207647.0 0
262388.0 208518.0 0
266790.0 206408.0 0
270788.0 210544.0 0
271471.0 206779.0 0
275188.0 209190.0 0
278835.0 206302.0 0
281794.0 210407.0 0
287717.0 210365.0 0
293505.0 207652.0 0
292604.0 211440.0 0
301806.0 208841.0 0
297190.0 210080.0 0
307313.0 208693.0 0
192393.0 213832.0 0
195860.0 217002.0 0
201597.0 216802.0 0
205942.0 212191.0 0
213688.0 213711.0 0
219731.0 211599.0 0
223933.0 210899.0 0
224293.0 215187.0 0
228972.0 212613.0 0
233196.0 212435.0 0
236422.0 214649.0 0
241108.0 212769.0 0
246447.0 214366.0 0
254982.0 211632.0 0
251318.0 215637.0 0
259901.0 212378.0 0
256816.0 215379.0 0
265869.0 212477.0 0
273894.0 212894.0 0
271003.0 214436.0 0
277614.0 213237.0 0
287117.0 215080.0 0
291487.0 215845.0 0
295481.0 214239.0 0
298881.0 215430.0 0
304290.0 215155.0 0
192276.0 221052.0 0
196273.0 221892.0 0
207769.0 217750.0 0
212751.0 219587.0 0
218914.0 216897.0 0
222793.0 220705.0 0
227534.0 218807.0 0
231903.0 216845.0 0
230540.0 221042.0 0
236976.0 219898.0 0
243983.0 217293.0 0
240959.0 217203.0 0
246848.0 218768.0 0
254748.0 218843.0 0
250536.0 220187.0 0
261094.0 217647.0 0
267534.0 218827.0 0
274791.0 216397.0 0
273031.0 220459.0 0
281941.0 216981.0 0
277481.0 220228.0 0
287015.0 218865.0 0
284654.0 221227.0 0
292158.0 220163.0 0
296169.0 218436.0 0
300313.0 219118.0 0
303568.0 220662.0 0
307977.0 220222.0 0
192163.0 225449.0 0
201391.0 222988.0 0
196820.0 226344.0 0
204368.0 227383.0 0
207597.0 223369.0 0
217423.0 221279.0 0
213703.0 225377.0 0
219854.0 224238.0 0
227288.0 222674.0 0
233304.0 224306.0 0
239076.0 225669.0 0
242876.0 221223.0 0
247315.0 222456.0 0
249527.0 225555.0 0
253634.0 223654.0 0
258086.0 221878.0 0
262930.0 223221.0 0
267697.0 224305.0 0
271257.0 223644.0 0
275586.0 224609.0 0
281892.0 222025.0 0
279378.0 223269.0 0
284224.0 224639.0 0
288472.0 222904.0 0
292140.0 226057.0 0
295470.0 223029.0 0
300501.0 224120.0 0
305520.0 224092.0 0
191930.0 229740.0 0
195549.0 231103.0 0
200330.0 230344.0 0
208727.0 228784.0 0
218923.0 228437.0 0
223513.0 230827.0 0
223953.0 226055.0 0
229010.0 226455.0 0
234660.0 229269.0 0
239237.0 230807.0 0
244794.0 226168.0 0
243728.0 230963.0 0
248209.0 229738.0 0
253136.0 228769.0 0
258526.0 227084.0 0
265152.0 228309.0 0
261311.0 230824.0 0
271055.0 227999.0 0
275984.0 229179.0 0
280338.0 227138.0 0
287535.0 227978.0 0
283669.0 230591.0 0
292069.0 231101.0 0
296696.0 228034.0 0
303708.0 227747.0 0
300841.0 231113.0 0
307283.0 228132.0 0
305060.0 233094.0 0
308157.0 231147.0 0
192871.0 233495.0 0
193738.0 237457.0 0
197641.0 234557.0 0
204416.0 234205.0 0
208917.0 233082.0 0
211194.0 235406.0 0
213742.0 231491.0 0
219279.0 233481.0 0
224378.0 235510.0 0
229402.0 231869.0 0
236024.0 233926.0 0
241192.0 235463.0 0
246671.0 233199.0 0
251317.0 234357.0 0
256910.0 232608.0 0
265411.0 232755.0 0
261516.0 235138.0 0
269919.0 233033.0 0
274750.0 233191.0 0
279235.0 232090.0 0
282849.0 235095.0 0
287348.0 232731.0 0
291560.0 235578.0 0
296787.0 234363.0 0
301608.0 236213.0 0
198456.0 239241.0 0
203202.0 238985.0 0
208161.0 238301.0 0
212056.0 239092.0 0
215122.0 236831.0 0
220377.0 238672.0 0
225840.0 240793.0 0
228666.0 237109.0 0
232658.0 236177.0 0
231301.0 240326.0 0
236549.0 239215.0 0
241655.0 240516.0 0
246216.0 236726.0 0
245933.0 240870.0 0
250261.0 239790.0 0
256479.0 239201.0 0
262471.0 239763.0 0
266929.0 237406.0 0
270217.0 241003.0 0
272657.0 237259.0 0
277801.0 237057.0 0
282128.0 240201.0 0
287386.0 237613.0 0
294253.0 239804.0 0
305794.0 240724.0 0
307938.0 236313.0 0
196132.0 243061.0 0
198775.0 246522.0 0
201572.0 242877.0 0
205472.0 242138.0 0
204280.0 245718.0 0
211102.0 241938.0 0
208420.0 244782.0 0
215850.0 242086.0 0
212758.0 245780.0 0
221407.0 243811.0 0
226011.0 245653.0 0
229241.0 243678.0 0
233992.0 244097.0 0
238608.0 244199.0 0
243836.0 245220.0 0
248760.0 244416.0 0
252892.0 243533.0 0
257102.0 246253.0 0
260953.0 243300.0 0
265787.0 243071.0 0
275236.0 242026.0 0
270806.0 245302.0 0
279506.0 244804.0 0
284333.0 243648.0 0
288969.0 242599.0 0
294772.0 244958.0 0
300082.0 243135.0 0
202989.0 250186.0 0
207959.0 249161.0 0
212513.0 249896.0 0
217355.0 247004.0 0
215959.0 250186.0 0
222169.0 248519.0 0
226658.0 250290.0 0
230659.0 247453.0 0
236031.0 249286.0 0
240341.0 247794.0 0
243511.0 249993.0 0
240344.0 250832.0 0
247465.0 248764.0 0
251882.0 248126.0 0
260167.0 250455.0 0
262602.0 247006.0 0
266671.0 247418.0 0
270011.0 249883.0 0
275016.0 247994.0 0
280047.0 250296.0 0
286517.0 246352.0 0
283068.0 246897.0 0
285731.0 250956.0 0
290729.0 247469.0 0
295012.0 248905.0 0
299795.0 249079.0 0
202603.0 255783.0 0
206147.0 253908.0 0
210334.0 254190.0 0
215473.0 254721.0 0
219123.0 251398.0 0
222873.0 253352.0 0
219981.0 256646.0 0
227243.0 255184.0 0
231267.0 252410.0 0
235459.0 254850.0 0
239562.0 254016.0 0
243218.0 253627.0 0
246338.0 252143.0 0
246687.0 256340.0 0
250035.0 252545.0 0
255370.0 252496.0 0
264892.0 251950.0 0
260363.0 254630.0 0
263600.0 256474.0 0
268952.0 253439.0 0
272831.0 252850.0 0
276368.0 252730.0 0
278585.0 254922.0 0
282251.0 255056.0 0
290879.0 252769.0 0
296299.0 254023.0 0
202756.0 260334.0 0
207187.0 258635.0 0
211842.0 258619.0 0
209481.0 261779.0 0
216592.0 260146.0 0
224096.0 257437.0 0
221865.0 261145.0 0
227497.0 260532.0 0
231236.0 257637.0 0
235092.0 259182.0 0
238517.0 258369.0 0
242106.0 257606.0 0
244536.0 260913.0 0
248344.0 260746.0 0
251875.0 257568.0 0
254758.0 261455.0 0
257044.0 257877.0 0
261004.0 259377.0 0
265378.0 260559.0 0
267164.0 256546.0 0
269009.0 259868.0 0
271118.0 256715.0 0
275432.0 256987.0 0
272556.0 260486.0 0
279510.0 258706.0 0
276417.0 261462.0 0
283013.0 258997.0 0
286867.0 256979.0 0
288731.0 261081.0 0
292126.0 257857.0 0
297030.0 259629.0 0
201526.0 263919.0 0
201983.0 266867.0 0
205889.0 263942.0 0
212798.0 262175.0 0
210701.0 265715.0 0
218886.0 264138.0 0
215317.0 264969.0 0
222112.0 266447.0 0
225117.0 264314.0 0
229250.0 265598.0 0
232768.0 262907.0 0
236992.0 262051.0 0
237215.0 266019.0 0
240514.0 262181.0 0
243403.0 264662.0 0
240920.0 266147.0 0
246827.0 264510.0 0
251319.0 263702.0 0
257981.0 262349.0 0
255391.0 265149.0 0
258671.0 266111.0 0
261420.0 263403.0 0
264991.0 264752.0 0
269392.0 264183.0 0
273755.0 263692.0 0
272943.0 266854.0 0
280322.0 262941.0 0
276951.0 266129.0 0
284488.0 262367.0 0
281156.0 266867.0 0
284353.0 266207.0 0
288485.0 265511.0 0
292580.0 262404.0 0
296724.0 264996.0 0
202702.0 271079.0 0
204953.0 267802.0 0
207850.0 267669.0 0
206804.0 270843.0 0
210676.0 270815.0 0
214265.0 268792.0 0
218651.0 268555.0 0
216596.0 272050.0 0
222621.0 270661.0 0
225789.0 268403.0 0
233392.0 267629.0 0
229880.0 269940.0 0
233009.0 271662.0 0
236357.0 270677.0 0
244353.0 268310.0 0
240236.0 269639.0 0
248816.0 267846.0 0
247094.0 271819.0 0
252863.0 267896.0 0
251086.0 271180.0 0
254359.0 271229.0 0
256263.0 268986.0 0
259240.0 270114.0 0
262082.0 267711.0 0
266263.0 268540.0 0
270109.0 269518.0 0
274253.0 270633.0 0
278285.0 270456.0 0
282731.0 270917.0 0
286277.0 269193.0 0
290094.0 270874.0 0
292568.0 267249.0 0
293425.0 270415.0 0
296924.0 270258.0 0
202119.0 275586.0 0
205213.0 274296.0 0
208674.0 274800.0 0
213675.0 273026.0 0
211983.0 275553.0 0
216437.0 276547.0 0
219901.0 273013.0 0
223376.0 275185.0 0
220361.0 276177.0 0
226675.0 272812.0 0
230562.0 274229.0 0
234443.0 275066.0 0
231186.0 277152.0 0
238868.0 274451.0 0
243012.0 272657.0 0
242463.0 276238.0 0
249913.0 274719.0 0
245974.0 276002.0 0
253116.0 274034.0 0
257497.0 274172.0 0
262913.0 272389.0 0
261672.0 276921.0 0
267211.0 272438.0 0
266200.0 275660.0 0
270771.0 274239.0 0
275608.0 274409.0 0
279940.0 275134.0 0
284069.0 274796.0 0
286702.0 273251.0 0
290056.0 275296.0 0
286851.0 277110.0 0
293786.0 273738.0 0
297688.0 274884.0 0
202274.0 279387.0 0
205534.0 277640.0 0
209228.0 278450.0 0
206399.0 280824.0 0
212977.0 279274.0 0
210015.0 281735.0 0
217174.0 281865.0 0
223725.0 278799.0 0
220444.0 279282.0 0
227558.0 277438.0 0
225780.0 281948.0 0
233360.0 278756.0 0
230324.0 281441.0 0
236722.0 278646.0 0
240408.0 278853.0 0
243961.0 279243.0 0
249289.0 278132.0 0
246761.0 279760.0 0
253645.0 278220.0 0
257936.0 279644.0 0
264986.0 278952.0 0
261760.0 281584.0 0
268757.0 278817.0 0
265566.0 282462.0 0
273380.0 278085.0 0
271792.0 281997.0 0
277303.0 278566.0 0
280294.0 279611.0 0
275748.0 281886.0 0
283432.0 278429.0 0
282754.0 281534.0 0
289804.0 279263.0 0
286431.0 281498.0 0
293664.0 278030.0 0
294993.0 281952.0 0
297749.0 278501.0 0
298392.0 281437.0 0
197272.0 284188.0 0
203093.0 283684.0 0
202008.0 287570.0 0
207739.0 284693.0 0
[...]
POINT_DATA 5000
SCALARS Radius float 1
LOOKUP_TABLE default
5258.36 5061.3 3163.97 5580.89 6810.52 5415.48 5120.0 4998.37 6182.6 5492.18 5867.73 3951.75 3642.12 4499.64 5812.43 5906.14 7513.1 5254.28 4402.52 4436.4 5733.48 3588.44 5645.7 5553.16 6110.27 5840.26 5073.35 4834.9 3863.18 5085.53 2356.98 5484.83 5351.6 4715.55 5013.56 5542.27 4375.68 5122.66 5484.19 5170.02 3557.27 4688.68 4182.53 4517.56 4672.91 5176.86 4366.19 2938.66 5065.13 3672.51 4940.78 4008.92 5561.06 5670.04 6044.04 5325.36 5538.89 4730.36 6059.59 5701.86 4238.81 5054.98 4468.59 6030.06 5325.02 4927.31 5200.76 5185.34 4432.58 5903.42 3955.56 3761.32 5292.64 4118.05 6166.5 5936.02 3615.22 4231.61 4380.59 5305.17 6716.79 3850.77 5546.39 5945.65 6759.9 7021.47 5926.61 2720.68 6051.14 4955.55 3563.63 4345.55 5885.03 5246.2 4862.64 5017.13 5205.43 3673.74 6684.56 2635.86 3968.64 4385.06 4290.3 4861.08 3942.53 3379.84 7613.27 4133.88 4094.62 5418.62 5493.32 5416.38 5740.68 4195.44 5836.15 3261.21 6704.06 2837.58 3653.41 3871.88 4827.23 4390.66 6116.18 7447.37 4688.67 4924.6 7184.19 4733.32 3867.67 2924.37 4003.05 4827.82 3607.45 3589.27 4951.03 4665.12 6483.19 4927.02 4174.52 6230.49 4601.27 7054.71 3641.64 4277.89 5539.32 6496.85 5600.93 3856.01 4124.71 5279.39 4911.47 5803.39 4381.97 3255.82 5242.73 2899.43 2812.98 4065.69 5399.73 4712.33 4805.87 5759.91 4333.2 3936.02 3856.1 5980.74 5109.54 5489.43 5054.25 5747.75 4796.33 5360.19 4874.39 5541.59 4839.34 5083.08 5728.85 6337.56 5863.59 3998.5 6257.19 4737.14 5603.15 5390.22 4660.72 6038.78 5227.21 3997.1 5123.52 3260.67 4295.38 3038.33 3383.4 4780.03 4044.71 5816.2 3829.13 3091.3 6458.82 5527.54 5573.7 7325.81 4794.96 6186.19 2980.99 6834.49 5525.39 4024.3 5938.34 5555.28 4686.65 4695.45 5556.96 3888.21 3921.18 5697.78 4667.36 5495.39 4487.31 5693.81 2540.31 5789.98 6138.47 5697.4 4727.62 4055.8 5206.78 6425.26 5143.58 4840.01 4484.76 5611.2 7933.0 5173.87 6394.38 5118.27 5169.36 5834.74 5788.23 6052.7 6902.81 5529.52 4392.68 3554.9 5252.48 3996.0 4002.16 4015.92 4138.16 4778.34 6029.66 4684.5 6302.8 4270.95 4005.44 5280.17 5028.96 6362.12 5152.36 4220.65 6820.42 4455.12 5380.13 5932.23 5711.87 5581.75 3798.62 5891.05 4091.31 7199.21 6124.89 5708.81 5043.05 5120.49 3486.22 5409.61 6038.2 5555.88 6732.43 3866.16 4524.28 3183.98 4511.82 5826.64 4816.2 4894.16 4896.52 4941.22 5791.61 6392.01 4254.17 3666.57 6644.76 5615.42 4523.7 5255.32 5337.48 5542.21 5924.89 6894.71 4414.54 5262.61 5201.36 5094.81 5713.22 5861.71 5017.78 3794.63 3778.1 6175.81 4727.24 6959.81 6321.41 4829.35 4089.76 3372.79 5282.64 4479.66 3369.13 5308.1 6372.62 7565.34 5637.59 5481.78 4937.14 3307.12 5551.36 4306.53 6038.14 6135.57 5972.06 4312.67 4359.04 5015.69 4947.52 4520.1 6677.09 4305.57 5813.4 5201.67 5526.55 4751.02 3192.41 5184.56 4715.72 4987.87 5367.2 4669.66 3043.85 6730.19 4907.89 4937.02 6037.08 3103.0 4049.23 6084.86 4467.94 5478.92 4850.81 4933.21 4723.12 5024.9 5659.17 5998.38 4270.24 5423.8 4989.15 4164.13 3417.33 4642.34 5874.89 3791.79 4293.03 4424.7 4754.05 4951.47 6084.93 3315.57 4764.96 4808.52 5607.24 5461.13 4726.76 3599.45 5655.21 5629.19 6756.95 5601.05 3586.91 3115.91 4948.92 5810.84 5094.44 5375.47 4655.49 4809.42 4717.05 4562.29 5287.2 4234.94 5013.13 4926.42 5080.66 5153.74 5248.77 4165.81 4528.09 3556.85 4389.21 4128.98 4925.44 5246.61 5215.15 5046.33 5053.92 5839.13 5090.24 5923.5 5091.39 2240.39 6324.23 4382.74 4516.43 4749.8 3748.24 4230.54 6163.38 4566.18 4964.09 3459.9 5856.11 4109.88 4980.85 3327.49 5714.58 5110.45 3329.99 4083.97 5208.32 3895.51 6291.51 6246.22 5882.89 4307.28 4100.38 5804.71 5020.12 6352.26 3735.44 4073.93 4645.41 4786.6 5096.78 4727.24 4651.28 4384.42 4493.48 4362.19 5082.6 3693.63 6061.47 4093.08 4997.27 5543.27 5628.24 3960.8 5992.26 4923.9 4973.78 3947.47 4607.02 3296.27 6673.96 5174.89 4188.32 5370.52 5538.93 4739.42 5727.3 4899.11 4242.52 3847.38 4745.45 4907.06 3057.03 4433.59 5163.9 5740.84 4973.83 4612.68 3320.52 4929.8 6355.42 4151.94 5690.56 3937.74 5478.47 6142.37 4449.22 5806.08 4853.39 5365.89 5070.39 4511.54 4613.31 5196.0 5091.68 4204.84 6119.09 4713.25 5069.25 6243.0 5441.96 5048.89 4288.3 3435.9 5774.81 3697.96 5344.77 4278.07 4723.48 5356.51 3818.59 4863.72 5495.68 6043.3 5530.87 3912.37 4310.18 4129.43 5927.43 5244.78 5492.26 5762.84 5119.37 3982.23 5243.29 4336.42 3130.65 5004.67 5409.33 4178.15 7531.29 5935.03 3991.03 3161.47 4652.29 6826.57 4495.87 5027.98 5097.87 5281.28 2631.9 4087.15 4143.08 5489.34 5952.75 6445.94 4281.49 5537.72 4320.28 4685.34 4220.88 6519.71 6640.13 5351.39 5210.03 3402.32 4583.31 4306.11 7589.94 4466.03 5419.37 5985.29 4898.94 4733.04 4247.23 5788.66 4755.47 6390.78 7435.25 4788.87 3746.31 5498.32 5346.27 7267.18 4758.21 5002.48 5708.14 4262.82 5542.14 6342.25 5293.9 6327.9 5449.18 3092.35 3629.96 4714.54 3320.11 6022.17 4503.89 5903.66 4528.49 5275.32 4268.65 4694.83 4354.08 3903.75 4485.99 4520.62 5475.7 5475.8 5314.69 6050.81 5543.46 6022.72 6475.1 5527.33 6255.18 2691.29 7500.97 4277.88 3920.42 6332.36 4218.06 4931.53 3843.58 6691.39 6142.94 6082.81 3191.99 5367.52 4048.37 5030.91 4322.15 5507.24 5101.59 6851.54 5313.66 5935.47 2651.49 5512.23 5349.31 4649.22 5509.42 5936.36 4256.43 5229.48 5127.16 4249.46 4244.99 4643.31 4969.21 6917.52 6256.02 5402.21 4668.71 7228.46 6623.85 5102.36 8332.24 7134.64 4602.25 5110.37 4931.38 5664.98 3485.26 4659.59 5025.39 4548.16 4377.07 3848.93 3813.22 5570.3 6020.48 5234.29 4711.62 4114.24 4645.58 5394.55 2976.22 5094.52 2682.24 5928.32 5415.19 4016.18 5526.75 5435.74 5560.26 5965.81 2330.66 3702.37 4177.19 3691.0 3990.25 2845.98 4880.14 5320.92 3948.23 5228.18 5787.31 4342.9 6122.55 5480.13 4270.53 4329.05 4736.58 3240.09 4556.36 3369.23 3688.8 4515.71 5893.5 3695.36 4547.19 3963.86 5076.35 5200.05 4091.8 5273.35 5670.2 5181.4 5166.79 4946.74 3950.63 4612.62 4275.57 3619.07 6385.23 5327.45 6185.89 2983.99 5660.85 4750.17 4752.51 3758.07 3587.05 4989.09 6362.14 6719.88 5978.82 6155.31 6308.71 5978.9 2739.94 4790.08 4194.5 5082.47 4792.73 5513.6 5264.06 4901.41 5358.59 6202.55 3817.13 5023.15 3844.9 6375.99 4871.44 4853.02 6259.23 3457.48 4662.56 5417.15 3405.98 5996.33 3688.16 4681.72 6631.19 4467.04 5817.25 3997.96 2614.4 4439.35 3460.94 6184.4 4373.45 3828.81 4982.31 6229.37 5269.18 4406.1 5034.59 5314.85 5065.11 4553.56 4223.33 5911.67 4187.56 4840.84 4501.51 5138.31 3708.04 4551.24 3610.4 4621.75 6387.01 6338.89 7111.16 4564.34 6248.81 5088.44 4998.21 3931.07 6079.11 7440.72 3949.6 4945.39 5661.62 4867.08 5626.61 5407.78 6363.92 6632.99 6205.93 5830.72 5309.98 5289.52 4307.48 4305.43 5450.44 4942.77 3927.99 5069.84 5329.64 3629.62 3323.28 4051.44 4301.06 4997.27 5344.25 5191.63 5379.87 6013.14 4581.13 3856.59 4219.07 5372.61 6480.17 5584.06 3686.21 3838.56 6445.22 5872.05 4962.77 4256.67 5323.3 4427.28 6430.39 3082.32 4765.02 5376.71 4448.13 5703.6 6326.18 6648.68 4713.74 5061.98 4537.6 4923.24 4419.61 7177.44 6718.19 4407.87 4082.57 3848.54 5080.18 5941.4 5266.5 4454.63 5868.82 4050.9 4716.19 5135.69 5344.0 3456.98 4602.86 5925.6 2765.2 5572.95 5413.79 6723.16 4746.52 5402.24 5013.42 5651.07 6101.92 4635.6 6239.84 3658.37 5370.85 5070.29 5629.39 4807.28 4266.03 5075.55 4084.49 4220.03 6179.96 5703.07 5147.36 6260.79 4563.46 3963.76 4236.14 5282.91 6510.17 4263.33 4066.38 6695.82 6049.55 5514.76 6405.76 4290.14 4593.7 5987.17 4043.57 3979.82 5586.81 5006.58 3868.18 5130.91 4948.5 4527.02 5210.48 4519.22 7552.94 3627.55 4409.63 5865.39 5521.25 3178.54 5949.46 6157.04 2684.03 5246.47 3776.94 4768.61 2261.36 4522.21 5280.69 6923.84 5449.46 4662.43 6113.54 4043.66 5733.62 5169.9 4425.84 5282.51 4871.96 5331.02 4523.88 5742.65 5709.62 4241.89 4877.67 5835.78 6045.46 4138.42 4481.53 3824.16 5011.31 3689.45 5077.33 3948.17 5383.07 4959.34 4531.14 4247.15 4602.85 7644.38 4051.34 5278.36 3661.9 5136.08 5107.23 4010.57 4187.31 5506.19 6191.29 6719.94 6166.29 4950.67 5294.77 4709.05 6553.94 5255.18 3797.33 3004.16 4460.92 7256.35 5945.89 5592.32 4800.69 3279.1 5054.74 4099.77 4020.32 3498.2 5941.72 4245.72 4763.45 3815.26 4150.99 4478.15 5681.38 4292.06 5330.45 6318.18 5045.38 5350.88 4790.78 4591.87 6552.22 5379.09 6004.68 6799.4 5222.16 5533.42 5558.68 3240.51 4599.38 7422.36 5161.01 4628.4 5453.6 5227.59 3077.84 5409.63 4630.82 5528.53 5726.66 5460.65 4767.78 3062.43 4105.55 4042.28 5912.61 4978.31 4402.67 4403.98 4981.9 4948.98 5794.24 4537.32 6562.18 5445.87 3771.48 5147.67 5577.04 4986.77 5125.78 5452.83 6034.41 5178.99 4027.09 6422.84 5801.99 4502.18 5534.94 5180.76 4993.35 3312.06 6218.95 4690.55 5533.72 3678.08 5146.37 4802.32 5518.57 5463.48 5730.33 4527.99 4543.1 4376.7 5190.61 4298.15 6051.83 3973.12 4263.16 4813.08 6024.75 6799.88 5426.78 4540.86 5235.17 4863.23 3555.86 6566.1 5381.16 4560.84 4414.48 5227.52 5163.02 4127.74 4541.21 4216.92 4704.72 5198.77 5423.0 5643.58 5344.43 5197.52 4135.62 5615.35 4860.33 5266.22 3361.26 4983.39 3685.13 3418.99 5366.52 7132.12 5417.8 5680.94 4836.16 5545.46 5832.37 6550.44 3764.06 4642.93 5941.9 6642.76 5860.67 5987.42 5990.52 5652.0 4340.76 4435.36 6065.22 6386.78 5565.13 6086.96 6193.35 4302.5 3066.13 2476.04 4571.7 5908.1 4107.03 4850.01 4138.46 5215.05 3975.31 5137.34 6070.58 4373.47 5490.43 6169.11 5172.53 4896.11 5226.97 6132.95 4480.95 5754.18 5132.68 4558.15 6552.21 4232.16 5227.02 5151.11 5300.96 5581.55 5193.01 8325.01 4440.81 4523.39 6109.49 5829.22 5567.93 3764.1 2967.38 5463.41 4835.83 5254.49 4421.12 6045.22 4996.99 4221.28 4456.39 4470.61 4656.78 4631.83 4156.38 6048.7 6009.88 4092.24 4177.94 4344.58 5347.48 4271.69 3929.19 3633.87 4810.12 3970.25 3821.72 2775.04 6035.6 5198.29 3627.82 4044.45 5262.19 4285.32 5022.28 4318.48 5339.38 4285.66 4004.35 5008.63 4763.96 3450.93 4270.74 6293.89 6595.03 5737.75 3778.02 4350.12 5670.0 3603.51 4344.51 3834.43 6609.84 4707.06 5491.37 3781.77 3474.5 3860.83 6348.03 5732.27 5434.47 4497.78 6917.62 5811.18 4243.79 5332.65 4779.5 6451.33 4159.35 4929.75 4237.98 6649.96 3701.27 4729.43 4896.39 5233.78 5105.16 5991.09 5896.46 6006.16 4164.68 4678.38 4742.68 5634.83 5495.84 4502.5 5113.21 5499.11 5922.5 6898.19 7099.43 5526.14 6449.45 4244.9 6048.86 5311.03 4986.51 5255.12 4238.4 3872.61 3930.79 5293.51 4446.06 5097.45 4185.61 2761.07 4367.78 5742.47 4917.99 4095.75 5222.51 3319.67 5135.96 5164.1 5658.37 6074.94 4250.88 3783.54 4792.39 5278.56 3475.67 7038.89 5146.37 5631.14 5433.65 6137.8 5604.35 4442.22 5225.33 3091.67 4332.87 6439.37 4614.3 4384.88 6887.27 4562.74 5126.91 6008.49 4806.34 3942.07 5448.61 5050.65 5316.75 4827.33 6268.1 5022.8 3784.5 6133.92 5782.6 4862.21 6261.42 4011.77 4374.35 5965.78 6396.74 4527.08 4516.28 5776.37 5486.68 5315.4 5100.25 5678.96 4470.4 4611.53 6894.26 5094.48 5576.92 6408.83 4586.19 5365.24 6625.18 4047.87 5099.21 4573.72 6969.28 5636.4 4298.45 4076.59 4428.14 6464.15 4972.17 5699.53 6685.4 4222.77 5268.38 4850.06 5527.23 4805.33 4814.12 3863.67 5980.95 4013.38 5067.56 4343.78 4887.76 5413.31 3012.99 6477.91 4081.97 5401.99 4303.19 3633.79 5514.84 6081.14 5421.53 5480.83 5776.57 7144.24 5133.97 7443.72 3600.43 3937.08 6600.94 5371.02 7055.53 5513.57 3719.84 4178.4 5013.67 5669.65 5011.84 5820.48 5253.55 7034.11 2586.12 6125.34 5433.8 5975.63 5252.34 4274.61 2965.79 4410.55 4287.63 3921.08 5083.41 4190.31 5683.61 5805.86 5346.68 4049.02 5020.71 5296.29 5997.88 2681.29 4360.23 6234.32 4585.31 5010.04 4570.98 5323.91 5825.38 4163.74 3665.95 4296.69 5698.96 6471.42 5283.8 5369.5 6016.19 4124.49 4479.11 5714.25 3230.13 5325.96 6332.01 7044.29 7085.01 3352.35 2735.53 6193.08 5263.3 4909.65 4008.15 5116.6 4669.06 6316.56 4811.32 6420.81 6400.08 5134.39 4256.57 3914.2 4607.85 5653.9 4220.46 4287.53 5683.26 5598.74 4906.82 4788.58 5131.24 5260.34 6155.1 5729.23 5206.48 5934.22 6586.45 4709.35 3780.23 5826.04 3471.03 4359.62 5690.26 5062.71 6057.22 4156.2 6946.21 4289.17 5564.02 4497.59 6314.07 6444.77 7055.42 5443.58 6248.6 4558.46 3836.45 5731.57 5662.55 5737.92 5839.71 3755.95 3056.7 5591.76 5889.35 4394.56 5388.78 4275.07 5599.7 6238.32 6804.79 6372.13 5535.91 5955.86 5404.01 6176.67 5412.24 5016.02 4581.37 4234.18 4920.21 4049.16 3936.95 6069.3 5887.01 5168.35 3747.03 6523.86 7693.4 4286.49 5580.92 4715.58 4743.59 3317.83 5784.3 3532.3 5769.98 6088.68 2221.99 6070.3 5937.08 4643.56 5046.21 5612.21 5894.61 4929.14 5687.83 5196.67 5945.08 5004.23 6496.67 5876.71 6442.69 5474.8 6320.71 5624.49 5339.78 5226.0 4750.78 3095.48 3745.84 4730.41 5188.81 3923.03 4643.85 5696.88 4004.04 4203.26 5082.74 5607.14 5411.85 3999.94 4844.57 6915.83 4027.46 3901.8 6072.45 5511.88 5941.61 4470.98 4933.65 4512.11 5759.46 6098.1 5708.99 6333.29 5687.85 6401.43 4477.04 4558.47 5703.74 4747.55 2685.81 5464.68 4510.8 5896.26 4587.67 5951.81 5093.82 6101.13 3924.14 6918.35 6348.54 4066.57 5642.35 6357.47 6101.57 4891.38 4793.65 2949.12 4532.89 4533.37 4848.46 2779.99 5742.09 5887.38 6942.34 5851.61 3658.05 6153.94 6836.82 3862.77 3858.17 4631.99 5388.39 2783.85 4356.49 4326.48 4437.07 6184.88 3449.37 5208.14 5829.32 4396.25 4450.7 5151.52 3763.05 5973.33 3583.21 5092.24 4347.74 4135.08 5442.32 5291.9 5128.57 5067.46 4863.01 6000.7 5620.74 5139.5 5604.21 3979.54 7493.3 5304.13 4814.55 4373.3 4648.04 3527.05 5029.78 6262.72 3664.11 4166.08 5762.59 3365.82 4861.06 5873.69 5960.66 3979.26 6608.73 4962.09 5654.31 3999.48 6062.05 4735.33 6939.12 4413.85 6853.85 6171.13 5092.37 4020.4 2395.5 4864.22 3497.9 5782.48 4031.78 3735.24 5950.04 2435.33 6574.95 4231.83 4074.48 6853.04 3614.96 3886.68 4691.91 5831.96 4539.07 5064.79 4475.83 5480.3 3427.63 7509.24 4146.81 5756.75 4840.44 6639.64 5212.43 3687.65 5454.12 4834.3 6318.23 3851.85 4058.87 4206.98 5156.76 5948.71 3856.53 5460.89 6040.74 4054.22 5260.85 2884.65 5807.46 4648.21 4393.16 3311.29 3110.13 5478.11 5526.31 5030.15 3477.1 3644.78 4078.93 4740.98 3185.39 3728.18 4526.81 5335.47 5128.77 3994.07 5491.9 6405.0 5551.95 4659.16 3918.87 5369.08 4518.04 3101.75 4009.62 4766.06 3580.58 4874.18 5356.79 2081.58 4011.37 5233.29 3169.67 4312.56 4612.06 4968.03 3361.92 5204.04 5944.09 3306.14 5490.58 5833.06 5698.77 4863.79 6607.87 6515.84 4163.5 5374.51 4143.78 6481.79 5320.28 4123.6 7092.87 5224.12 6098.14 4569.12 4796.58 4298.67 5750.71 4472.17 6222.42 5470.77 5516.95 4831.47 5563.79 4151.76 4406.4 3905.51 3493.47 4721.02 3546.71 4254.37 4596.75 5768.57 3374.08 4188.87 5564.23 4498.25 5151.21 5398.64 4693.52 6817.57 4568.41 4745.43 3624.7 3420.08 4320.42 4912.04 7165.9 4255.34 5344.83 7046.11 4449.98 4863.97 6342.48 5589.37 5439.49 5216.26 4887.52 5478.95 6571.31 4392.65 6103.11 5174.75 5048.55 5932.07 4984.46 4024.31 5844.72 4147.31 3992.97 5989.05 7228.94 4441.22 5393.65 4961.99 4595.12 4386.8 4549.69 6484.43 6423.81 3485.54 6192.77 4312.15 5934.82 4501.78 5633.61 4219.94 5048.19 6799.23 4264.91 5907.46 4888.27 5399.29 6740.71 5549.49 5789.55 6605.86 5423.42 2511.46 4901.2 2775.69 6505.78 4778.82 5657.36 5467.84 6124.08 3619.79 5029.47 5876.64 5395.14 4750.58 6710.88 4702.06 3464.83 2477.07 3967.48 5117.47 5724.64 4923.41 4538.95 4970.88 4925.63 5965.15 4763.66 4666.81 4850.14 6739.08 7042.12 5463.38 4471.58 3637.61 5945.21 6313.06 3493.7 6345.13 6470.3 4938.74 4200.03 4719.7 3474.39 5313.22 3436.15 5328.22 5711.11 4575.94 4216.17 6484.17 5021.88 4938.72 5956.65 5931.77 5108.06 4000.43 4222.4 4914.45 4698.87 3573.73 3984.88 4661.03 5160.59 5318.53 5262.35 4732.09 4281.98 5138.2 5783.48 4701.5 4504.35 4771.65 5012.97 4036.91 5110.11 6379.14 3634.5 4027.63 6631.28 5420.67 6413.15 5416.45 6459.51 4955.16 3288.01 4904.51 2202.77 5751.15 5950.88 4149.55 5853.89 6201.86 6551.93 3380.69 4140.4 4725.01 4625.67 5966.75 4458.64 4583.52 3657.69 6418.11 7122.87 4243.26 3572.94 4922.49 4153.84 5797.36 5001.58 5119.86 6487.56 4592.15 5084.17 4633.05 4854.11 5971.22 2275.45 6522.59 4909.31 5012.5 6519.43 4785.25 5461.55 4270.15 3298.2 5053.95 6306.21 6667.68 5926.11 6213.04 2990.77 4497.31 3163.78 4305.16 3830.46 4721.32 4888.6 5882.65 3293.56 5078.86 4797.52 4780.2 5163.55 6326.39 6817.32 5501.93 5462.21 6343.14 5374.98 6049.79 5226.56 5274.19 4901.07 4050.08 5599.49 5452.42 4097.57 5005.85 5017.5 4893.49 5325.44 5102.75 5760.22 4597.29 4200.09 5938.17 4795.43 5097.95 2928.82 4811.76 5313.12 5498.42 3344.57 5351.56 6448.66 5220.76 4453.97 6945.98 6412.67 7001.83 4482.9 4593.7 3766.69 4349.13 4891.67 5513.8 6818.91 4521.75 3503.65 3429.57 5569.2 5350.88 6735.97 5305.59 6114.89 4330.58 5754.6 4355.83 6870.97 5351.86 6056.87 5474.01 5307.35 7554.58 4342.18 3639.44 5446.4 5725.37 3868.62 5510.9 4883.63 6015.02 3492.83 6280.13 5244.22 5585.14 7039.98 4820.17 4729.42 5089.26 3886.72 4901.44 4998.22 5415.45 5533.19 5711.62 5417.21 5435.19 6602.43 3562.79 7093.13 6865.76 5253.37 5424.46 5235.11 5211.38 5266.01 6031.67 6515.8 6413.11 5092.28 5529.42 4918.77 4739.14 5274.14 5257.12 4636.5 4819.73 4903.82 3382.7 5100.1 6471.55 5085.71 3954.91 5923.4 4623.61 4319.79 6263.44 5960.56 6643.85 5122.63 4020.95 5774.97 5862.86 2315.64 4703.08 4890.5 4390.41 4488.85 6113.95 3981.07 3731.84 4579.69 3554.48 6496.52 5186.3 3991.42 3718.69 5966.61 4388.63 4940.28 4514.79 4834.87 3672.21 2216.82 4509.89 6752.75 5269.38 3022.6 3004.34 5607.3 5375.1 4172.6 4638.18 4196.37 5211.6 5806.31 5456.71 3556.79 3503.41 7317.04 3971.08 6204.65 5438.92 6550.4 5036.98 4120.07 5188.53 4882.66 6746.66 5410.33 3908.56 4642.74 4844.83 5244.78 3636.15 5652.87 5135.63 5483.7 5018.69 6384.7 3152.86 3896.27 5952.38 5807.52 5963.36 5230.02 5087.14 5169.48 5166.89 5491.63 6016.08 4731.21 6064.71 6102.98 4505.28 5138.33 3743.76 3425.69 4971.29 6711.21 5510.45 3684.15 5832.29 4438.76 6456.58 6006.89 4159.81 3814.65 5244.98 3965.3 5792.98 3776.8 5096.43 6156.21 4383.56 6104.26 3568.28 4798.17 4990.79 5166.79 5425.98 4953.1 2895.63 4516.53 6449.64 5818.95 5767.9 3940.49 4857.84 2040.66 5384.76 2978.76 7016.27 6138.12 6622.11 4434.19 4689.15 4428.78 4940.42 4965.89 5746.28 3703.1 4371.99 4946.42 5187.7 6090.91 5409.66 4082.47 3561.29 4537.14 3295.83 2965.01 5203.08 6235.57 5412.31 4863.27 3492.19 4584.5 6766.43 4118.84 5916.16 6934.37 3423.15 5010.2 6098.95 4997.83 6123.03 5578.94 5148.08 4777.03 6192.0 7610.49 5885.28 6579.31 5323.55 3804.5 5452.36 6083.28 6486.37 4745.79 6100.73 5470.04 4198.94 4908.75 4211.82 6003.78 6556.26 2628.22 5684.25 4901.29 4124.76 4244.49 4050.03 4813.33 4775.04 4952.52 3840.21 3646.95 4081.34 4954.76 6334.53 5377.37 5869.67 4311.48 4899.73 5457.66 6394.19 5973.89 6193.73 5518.11 4192.21 5712.35 4743.9 5701.52 3124.7 6776.22 3719.11 4467.13 6060.17 3877.8 5153.18 5902.67 4730.14 4236.86 5454.11 2606.51 3994.39 5393.76 4941.02 4618.73 3864.92 6119.99 2955.36 3668.93 4960.64 4983.3 4128.1 5372.82 6592.93 4385.81 6350.71 6436.74 4034.05 5583.61 2460.79 4653.83 6063.64 5996.66 6479.39 4093.99 5079.22 4122.92 6464.8 4908.49 4452.54 4962.21 4684.44 5884.9 5089.62 3685.65 3468.42 6790.73 4590.55 3685.13 4673.35 5243.43 5659.95 3876.21 4655.16 4741.26 5920.32 3701.16 4186.6 6022.7 4152.85 5551.9 3867.19 4219.78 4963.34 4260.92 5644.82 5499.39 4407.9 6413.02 4440.57 4718.54 6736.03 5374.07 5548.29 3087.09 3623.87 3766.55 7480.41 5163.77 5469.13 6027.62 5765.42 4976.12 5530.49 4817.16 5453.98 5653.03 5660.55 3989.7 4157.29 5107.0 4246.61 3684.56 4286.17 6028.09 5327.75 4609.02 4946.23 4852.58 4896.65 4532.7 5561.74 5975.23 4504.86 4473.29 4788.08 996.652 5212.37 6163.54 5965.58 5058.51 4607.18 2403.72 3899.7 7200.89 4147.49 5162.67 4802.98 4833.55 5760.98 4705.68 7224.99 4749.96 5384.86 4658.24 3623.19 4387.39 4906.11 4745.16 4564.1 4848.14 5509.51 5366.22 3199.4 7261.51 5254.24 4968.14 3742.11 3597.43 4914.03 4158.91 5144.56 5321.17 5311.55 3360.86 3034.16 4869.25 6273.6 5545.21 4333.87 4763.4 5136.87 5024.32 4708.17 3779.45 2741.2 5806.61 4983.1 6010.59 7123.04 4009.24 4446.58 4402.17 5690.96 7778.01 5798.38 4456.11 4125.9 3862.91 5096.24 4986.71 5366.11 6171.71 7382.3 4405.42 4997.91 2995.67 3604.14 4599.81 3598.08 5522.21 5381.54 4749.59 4406.05 5698.23 4858.44 4680.94 5828.35 5089.1 2711.19 5799.69 5876.72 5571.72 5689.26 5869.4 4916.22 4992.42 5297.19 5251.4 4345.67 4940.84 4188.3 4453.64 5081.78 5019.93 4459.28 3885.86 5235.29 5177.64 5191.08 5453.3 6116.33 4479.94 2588.37 6250.23 5887.1