# vtk DataFile Version 2.0
Time step 85
ASCII
DATASET UNSTRUCTURED_GRID
POINTS 5000 float
231988.0 149293.0 0
219066.0 152093.0 0
226357.0 151895.0 0
230667.0 152423.0 0
235816.0 151629.0 0
242348.0 153006.0 0
248917.0 154282.0 0
273481.0 152468.0 0
279681.0 150920.0 0
193241.0 158530.0 0
199282.0 157234.0 0
207611.0 154552.0 0
204058.0 158834.0 0
213289.0 155816.0 0
218643.0 157634.0 0
222843.0 154693.0 0
223875.0 159011.0 0
227839.0 156417.0 0
232839.0 156446.0 0
238147.0 156543.0 0
242994.0 158646.0 0
252278.0 158622.0 0
255224.0 155385.0 0
259802.0 156877.0 0
263842.0 155164.0 0
265164.0 159442.0 0
268866.0 155731.0 0
275775.0 156434.0 0
272713.0 159182.0 0
280339.0 157076.0 0
285594.0 155275.0 0
287894.0 158826.0 0
291371.0 154621.0 0
291125.0 159472.0 0
294775.0 158372.0 0
299679.0 158366.0 0
305076.0 159112.0 0
189832.0 164172.0 0
197061.0 161118.0 0
201051.0 160946.0 0
205380.0 163869.0 0
209229.0 160075.0 0
214163.0 160830.0 0
218729.0 163571.0 0
228197.0 160804.0 0
224561.0 164229.0 0
232786.0 161681.0 0
238271.0 162057.0 0
243578.0 163966.0 0
247967.0 160512.0 0
252697.0 162767.0 0
256670.0 160131.0 0
261156.0 161114.0 0
264055.0 164485.0 0
268887.0 162825.0 0
273640.0 163237.0 0
277691.0 161686.0 0
284482.0 160106.0 0
281914.0 163450.0 0
288363.0 162786.0 0
293875.0 162764.0 0
298953.0 164009.0 0
304544.0 164448.0 0
194721.0 164918.0 0
199983.0 164714.0 0
207909.0 169474.0 0
211716.0 164951.0 0
215548.0 168641.0 0
221439.0 166910.0 0
227096.0 168777.0 0
229472.0 164887.0 0
234599.0 166002.0 0
231337.0 168256.0 0
239365.0 167820.0 0
244680.0 169047.0 0
248553.0 165585.0 0
253803.0 167420.0 0
258063.0 164835.0 0
261608.0 168547.0 0
267553.0 168939.0 0
272238.0 166686.0 0
275022.0 168338.0 0
278616.0 166792.0 0
285183.0 167309.0 0
291212.0 167484.0 0
295975.0 167834.0 0
301112.0 168962.0 0
305939.0 169253.0 0
311396.0 168323.0 0
187421.0 174535.0 0
189553.0 170075.0 0
195209.0 170062.0 0
201185.0 170646.0 0
212475.0 173382.0 0
220969.0 171129.0 0
225625.0 173019.0 0
230523.0 172792.0 0
234956.0 170358.0 0
242874.0 172540.0 0
239699.0 172461.0 0
249439.0 170484.0 0
246074.0 173375.0 0
253892.0 172094.0 0
257405.0 169807.0 0
258227.0 174009.0 0
263565.0 173700.0 0
272624.0 170565.0 0
276839.0 171466.0 0
281281.0 170734.0 0
287374.0 173466.0 0
292955.0 172258.0 0
297141.0 171582.0 0
301511.0 173527.0 0
305054.0 172994.0 0
191295.0 177169.0 0
196728.0 175421.0 0
202244.0 176520.0 0
207592.0 175697.0 0
211871.0 178290.0 0
217336.0 175578.0 0
222695.0 175954.0 0
226387.0 176590.0 0
230361.0 178325.0 0
235853.0 175754.0 0
241796.0 176517.0 0
246411.0 177199.0 0
249805.0 175034.0 0
249817.0 179218.0 0
254108.0 176887.0 0
259173.0 179468.0 0
265143.0 179087.0 0
270823.0 175871.0 0
274881.0 179476.0 0
277081.0 176189.0 0
280608.0 179832.0 0
281732.0 175130.0 0
284227.0 177918.0 0
288206.0 178278.0 0
290739.0 177145.0 0
293824.0 176206.0 0
298027.0 176032.0 0
300120.0 179834.0 0
303721.0 177312.0 0
309965.0 175319.0 0
315532.0 179392.0 0
184042.0 181952.0 0
187942.0 180614.0 0
187306.0 185059.0 0
192654.0 182997.0 0
198706.0 181093.0 0
205611.0 181592.0 0
211574.0 183240.0 0
215603.0 179903.0 0
216691.0 184033.0 0
220261.0 180181.0 0
225409.0 180432.0 0
229302.0 183459.0 0
234977.0 182076.0 0
244260.0 181270.0 0
240224.0 184120.0 0
248703.0 183588.0 0
253796.0 182034.0 0
262596.0 183122.0 0
267514.0 184016.0 0
271848.0 181587.0 0
276627.0 183839.0 0
286059.0 181663.0 0
281965.0 184509.0 0
290778.0 180575.0 0
295481.0 180554.0 0
299524.0 184076.0 0
303834.0 182127.0 0
307608.0 180366.0 0
311484.0 180672.0 0
309257.0 184721.0 0
314210.0 183842.0 0
182872.0 186858.0 0
186093.0 189690.0 0
190979.0 188991.0 0
196040.0 187019.0 0
200557.0 186291.0 0
205878.0 188135.0 0
211702.0 188620.0 0
217114.0 189092.0 0
222568.0 185955.0 0
227737.0 187641.0 0
232142.0 187480.0 0
236796.0 187154.0 0
243826.0 185490.0 0
241534.0 189558.0 0
246704.0 188023.0 0
252489.0 187794.0 0
258262.0 185243.0 0
263298.0 187777.0 0
269014.0 189680.0 0
272029.0 185678.0 0
274841.0 189421.0 0
279649.0 188334.0 0
286038.0 186639.0 0
290129.0 184760.0 0
289991.0 189788.0 0
294879.0 185915.0 0
299331.0 189376.0 0
304371.0 187077.0 0
309273.0 190105.0 0
313243.0 187891.0 0
316909.0 187612.0 0
183229.0 193040.0 0
186809.0 193511.0 0
190707.0 193979.0 0
195935.0 191940.0 0
200689.0 190652.0 0
200345.0 195303.0 0
203681.0 192282.0 0
204328.0 194898.0 0
208181.0 193551.0 0
213943.0 193812.0 0
219752.0 193769.0 0
224387.0 191490.0 0
226700.0 194924.0 0
229484.0 191537.0 0
235165.0 192142.0 0
240083.0 194971.0 0
244539.0 193751.0 0
249074.0 192464.0 0
258058.0 191786.0 0
264329.0 192936.0 0
273929.0 194502.0 0
278770.0 193015.0 0
283950.0 191117.0 0
294576.0 190541.0 0
293666.0 195262.0 0
299430.0 195269.0 0
304503.0 192500.0 0
315753.0 191193.0 0
312253.0 193923.0 0
318613.0 193476.0 0
184467.0 197135.0 0
189379.0 198562.0 0
193964.0 196661.0 0
197407.0 199625.0 0
202014.0 199938.0 0
205730.0 197746.0 0
210597.0 198774.0 0
216850.0 198950.0 0
223159.0 196898.0 0
227082.0 199352.0 0
231137.0 196158.0 0
235925.0 197493.0 0
239459.0 199547.0 0
244075.0 198930.0 0
249261.0 197438.0 0
253118.0 194916.0 0
259693.0 198259.0 0
264811.0 197365.0 0
269012.0 195055.0 0
268450.0 199532.0 0
277548.0 198181.0 0
282948.0 196489.0 0
288200.0 194862.0 0
292748.0 199896.0 0
296345.0 199185.0 0
304066.0 197254.0 0
309250.0 198763.0 0
316024.0 196394.0 0
185747.0 201245.0 0
182979.0 204798.0 0
189672.0 203288.0 0
193313.0 201152.0 0
196519.0 204736.0 0
201719.0 204551.0 0
206184.0 202155.0 0
213407.0 203362.0 0
221948.0 201722.0 0
226987.0 204444.0 0
232481.0 201720.0 0
237217.0 201941.0 0
240658.0 203471.0 0
244662.0 203617.0 0
248391.0 201947.0 0
253878.0 199637.0 0
252195.0 204178.0 0
257919.0 204254.0 0
263978.0 201769.0 0
268691.0 204280.0 0
272965.0 200693.0 0
273309.0 204782.0 0
277013.0 203152.0 0
282013.0 201676.0 0
287855.0 200655.0 0
295781.0 204384.0 0
300806.0 200858.0 0
305609.0 203669.0 0
310308.0 204284.0 0
315438.0 202140.0 0
321539.0 203854.0 0
187531.0 207601.0 0
192079.0 206457.0 0
195125.0 210323.0 0
201477.0 210331.0 0
205379.0 206305.0 0
207602.0 209969.0 0
209162.0 205432.0 0
212663.0 208311.0 0
217693.0 205974.0 0
222446.0 206837.0 0
226651.0 209890.0 0
231614.0 207240.0 0
236632.0 205822.0 0
242962.0 206794.0 0
239729.0 209448.0 0
247834.0 207013.0 0
253568.0 209232.0 0
259583.0 209567.0 0
263545.0 206304.0 0
267335.0 208568.0 0
271613.0 208452.0 0
280719.0 206430.0 0
276158.0 207773.0 0
285379.0 205403.0 0
286274.0 209067.0 0
290155.0 205843.0 0
293846.0 209272.0 0
301224.0 205791.0 0
298577.0 210407.0 0
305053.0 209439.0 0
312153.0 209751.0 0
317754.0 207545.0 0
182529.0 210897.0 0
187817.0 213027.0 0
192374.0 214982.0 0
196834.0 215151.0 0
205515.0 214467.0 0
211756.0 213509.0 0
216530.0 210402.0 0
216854.0 214697.0 0
221276.0 211837.0 0
227568.0 215216.0 0
231184.0 211707.0 0
232396.0 215092.0 0
235208.0 210221.0 0
237660.0 213631.0 0
244252.0 210815.0 0
241870.0 214400.0 0
248758.0 211903.0 0
245850.0 215012.0 0
252550.0 214873.0 0
256995.0 213117.0 0
264197.0 211083.0 0
260896.0 213895.0 0
269192.0 212580.0 0
274258.0 211050.0 0
278328.0 212047.0 0
282578.0 210314.0 0
281888.0 213966.0 0
285751.0 212999.0 0
290034.0 210946.0 0
294017.0 214056.0 0
302680.0 214369.0 0
307888.0 214631.0 0
317210.0 213673.0 0
183987.0 216740.0 0
189382.0 219599.0 0
193900.0 218676.0 0
201125.0 216047.0 0
197874.0 220090.0 0
203003.0 220291.0 0
208736.0 217986.0 0
213626.0 218174.0 0
218125.0 218771.0 0
222437.0 217029.0 0
226195.0 220333.0 0
230727.0 219024.0 0
235448.0 217715.0 0
239654.0 217060.0 0
243260.0 218742.0 0
248820.0 218128.0 0
254005.0 219059.0 0
257146.0 216712.0 0
264980.0 215285.0 0
261147.0 217572.0 0
265172.0 219398.0 0
269351.0 217216.0 0
274160.0 215127.0 0
273655.0 219914.0 0
279148.0 216662.0 0
284113.0 217503.0 0
289022.0 215943.0 0
297494.0 216732.0 0
292538.0 218602.0 0
301300.0 219223.0 0
306514.0 219627.0 0
312864.0 216295.0 0
318020.0 221044.0 0
182928.0 222080.0 0
186817.0 224383.0 0
190949.0 224832.0 0
193624.0 221829.0 0
196116.0 225466.0 0
200486.0 223721.0 0
204028.0 225321.0 0
206909.0 222191.0 0
211301.0 221963.0 0
213393.0 225133.0 0
215694.0 222082.0 0
221317.0 222426.0 0
225561.0 224681.0 0
233895.0 222011.0 0
229409.0 223116.0 0
238742.0 220808.0 0
242163.0 223425.0 0
246702.0 222220.0 0
251257.0 221777.0 0
255147.0 222288.0 0
253554.0 224782.0 0
257930.0 220391.0 0
261405.0 221441.0 0
264833.0 224259.0 0
269362.0 221617.0 0
269934.0 225434.0 0
274522.0 224727.0 0
278304.0 221046.0 0
279763.0 225370.0 0
283031.0 222228.0 0
288128.0 221180.0 0
290276.0 225178.0 0
296504.0 220850.0 0
292695.0 222716.0 0
298960.0 224559.0 0
303834.0 224260.0 0
307639.0 223278.0 0
311814.0 222025.0 0
182684.0 230172.0 0
183824.0 226350.0 0
187310.0 228923.0 0
192243.0 229314.0 0
196417.0 230836.0 0
200504.0 227641.0 0
204545.0 229830.0 0
208967.0 226492.0 0
217445.0 225849.0 0
213756.0 228942.0 0
217883.0 229655.0 0
222041.0 227559.0 0
228234.0 226645.0 0
232256.0 225980.0 0
230219.0 229204.0 0
234361.0 229729.0 0
237330.0 225498.0 0
238937.0 229721.0 0
241449.0 227096.0 0
242996.0 230147.0 0
249817.0 225362.0 0
245435.0 226740.0 0
249030.0 228939.0 0
253786.0 229052.0 0
258605.0 225460.0 0
263006.0 228923.0 0
267440.0 227920.0 0
271595.0 229432.0 0
276840.0 229253.0 0
285888.0 226815.0 0
281424.0 229143.0 0
291177.0 228947.0 0
294890.0 226307.0 0
299258.0 228732.0 0
304078.0 229898.0 0
308496.0 226894.0 0
313688.0 228976.0 0
186106.0 234132.0 0
190330.0 233305.0 0
194070.0 235137.0 0
200377.0 231390.0 0
202827.0 233771.0 0
209503.0 231689.0 0
215619.0 232813.0 0
220773.0 232545.0 0
226049.0 230737.0 0
230939.0 232926.0 0
236640.0 233146.0 0
240834.0 233618.0 0
246206.0 230623.0 0
245035.0 233728.0 0
249819.0 233535.0 0
254896.0 234151.0 0
258577.0 231033.0 0
262667.0 233427.0 0
267262.0 231209.0 0
266616.0 234621.0 0
270265.0 233507.0 0
274343.0 233099.0 0
279629.0 233004.0 0
284380.0 232103.0 0
288287.0 231212.0 0
291772.0 232851.0 0
[...]
POINT_DATA 5000
SCALARS Radius float 1
LOOKUP_TABLE default
3163.97 5258.36 5061.3 3642.12 5812.43 5906.14 7513.1 5580.89 6810.52 5415.48 5120.0 6182.6 4998.37 5492.18 5867.73 3951.75 5013.56 4499.64 5542.27 5122.66 5484.19 3557.27 5254.28 4402.52 4436.4 4182.53 5733.48 3588.44 4672.91 5645.7 5553.16 2938.66 6110.27 3672.51 4008.92 5840.26 5073.35 4834.9 3863.18 2356.98 5538.89 5351.6 4715.55 6059.59 4375.68 5701.86 5054.98 6030.06 5325.02 5170.02 4927.31 4688.68 4517.56 4432.58 5903.42 3761.32 5176.86 4366.19 4118.05 5065.13 4940.78 5561.06 5670.04 5085.53 5484.83 7021.47 4730.36 5926.61 2720.68 4955.55 4238.81 4468.59 3563.63 5885.03 5246.2 5200.76 4862.64 5185.34 5205.43 6684.56 3955.56 2635.86 5292.64 6166.5 5936.02 3615.22 5305.17 4380.59 6716.79 3850.77 6044.04 5325.36 6759.9 5416.38 6051.14 4195.44 5836.15 4345.55 2837.58 3653.41 5017.13 3871.88 4827.23 3673.74 4911.47 6116.18 3968.64 4688.67 4385.06 7184.19 4290.3 4231.61 3942.53 3379.84 5546.39 5945.65 5418.62 5493.32 4601.27 5740.68 4277.89 3261.21 5539.32 6704.06 5600.93 3856.01 4390.66 4124.71 5279.39 6337.56 5803.39 7447.37 3255.82 4924.6 5242.73 4733.32 2812.98 2899.43 2924.37 3867.67 4861.08 4003.05 4827.82 7613.27 4951.03 4133.88 4094.62 4927.02 6483.19 6230.49 7054.71 5489.43 3641.64 5054.25 5747.75 4796.33 5360.19 6496.85 5541.59 4839.34 5083.08 5728.85 3998.5 5863.59 4381.97 6257.19 5603.15 4737.14 4065.69 5399.73 4712.33 4805.87 3607.45 3589.27 5759.91 4333.2 4665.12 3936.02 5980.74 4174.52 5109.54 6458.82 5527.54 5573.7 7325.81 4055.8 4794.96 4874.39 2980.99 6186.19 4840.01 6834.49 5525.39 5938.34 6394.38 4024.3 5555.28 4686.65 4695.45 4660.72 5556.96 5390.22 6038.78 5227.21 5123.52 3997.1 3260.67 3383.4 3856.1 4044.71 5816.2 3829.13 5693.81 3091.3 2540.31 5789.98 6138.47 5697.4 4727.62 4005.44 5206.78 6425.26 5143.58 4484.76 5611.2 7933.0 5173.87 5118.27 5169.36 5834.74 3888.21 5788.23 6052.7 5697.78 4295.38 4667.36 3038.33 4780.03 5495.39 4487.31 4778.34 4684.5 4138.16 6029.66 6302.8 4270.95 5555.88 5280.17 5028.96 3866.16 6362.12 5152.36 4220.65 6820.42 4455.12 5380.13 4894.16 5711.87 5932.23 5581.75 3666.57 3798.62 3921.18 6902.81 4392.68 3554.9 5252.48 3996.0 4002.16 5708.81 5043.05 5120.49 5409.61 6038.2 5713.22 6732.43 3183.98 4524.28 3778.1 4511.82 5826.64 4727.24 6959.81 4816.2 6321.41 4896.52 3372.79 4941.22 5791.61 6392.01 6644.76 5891.05 5615.42 4091.31 7199.21 5529.52 5542.21 4015.92 5924.89 6894.71 3486.22 5551.36 4414.54 5201.36 5262.61 5094.81 5972.06 5861.71 5017.78 3794.63 5015.69 6175.81 6677.09 5813.4 4829.35 4089.76 4751.02 5282.64 5184.56 4479.66 3369.13 5308.1 3043.85 4254.17 6730.19 6372.62 7565.34 4523.7 6124.89 5481.78 4937.14 4467.94 4850.81 6038.14 4306.53 5024.9 6135.57 5998.38 4312.67 4270.24 4359.04 4989.15 4947.52 4164.13 4520.1 4642.34 5874.89 4305.57 5201.67 3791.79 5526.55 3192.41 4987.87 4715.72 3315.57 4669.66 5367.2 5461.13 4907.89 5629.19 5255.32 5337.48 6084.86 3307.12 4933.21 5478.92 5094.44 5375.47 4723.12 4717.05 5659.17 5287.2 4562.29 5423.8 3417.33 4926.42 5153.74 4165.81 4293.03 4754.05 4424.7 4925.44 4951.47 6084.93 5215.15 4764.96 5607.24 4808.52 3599.45 4726.76 5655.21 5091.39 4937.02 6037.08 5637.59 3586.91 4948.92 3115.91 5810.84 3748.24 4230.54 4655.49 4566.18 3459.9 4809.42 5856.11 4109.88 5013.13 4234.94 5080.66 5110.45 5248.77 4528.09 3556.85 3895.51 4389.21 4128.98 6246.22 5246.61 4307.28 5804.71 5046.33 5020.12 5053.92 5839.13 3735.44 5090.24 4073.93 4645.41 5923.5 2240.39 6756.95 4049.23 3103.0 5601.05 4516.43 4749.8 4493.48 5082.6 6163.38 4964.09 4997.27 4093.08 5543.27 3327.49 4980.85 3960.8 4923.9 5714.58 4973.78 3329.99 3947.47 4083.97 5208.32 4607.02 6673.96 6291.51 5882.89 4100.38 5538.93 5727.3 6352.26 4242.52 4907.06 4786.6 4433.59 5740.84 5096.78 6324.23 4382.74 4384.42 4362.19 3693.63 3937.74 6061.47 4449.22 5628.24 5992.26 5070.39 4613.31 5091.68 3296.27 4713.25 6243.0 5441.96 5174.89 5370.52 4188.32 4739.42 3697.96 4899.11 4745.45 5356.51 3847.38 3057.03 5163.9 6043.3 5530.87 4973.83 4612.68 3320.52 4727.24 4651.28 6355.42 4151.94 5690.56 5244.78 5478.47 5762.84 6142.37 5806.08 5243.29 4853.39 5365.89 3130.65 5004.67 4511.54 5196.0 6119.09 4204.84 5069.25 5048.89 4288.3 3435.9 3991.03 4652.29 5774.81 5344.77 4723.48 5281.28 4278.07 3818.59 2631.9 4087.15 4863.72 5495.68 5952.75 6445.94 3912.37 4310.18 4929.8 5927.43 5492.26 6640.13 5119.37 3982.23 5351.39 4336.42 7589.94 5409.33 4466.03 4178.15 4898.94 4733.04 7531.29 5935.03 3161.47 6826.57 4495.87 3746.31 5027.98 5097.87 5346.27 7267.18 4143.08 5489.34 5002.48 5708.14 4262.82 5537.72 4281.49 4320.28 4129.43 4685.34 4220.88 6519.71 3092.35 5210.03 4583.31 3402.32 4306.11 5903.66 5419.37 5985.29 4247.23 5788.66 4755.47 4485.99 3903.75 6390.78 7435.25 4788.87 5498.32 6475.1 4758.21 6255.18 7500.97 6332.36 5542.14 4218.06 6342.25 3843.58 6327.9 5449.18 3629.96 4714.54 3320.11 6022.17 4503.89 5313.66 4528.49 5275.32 4268.65 4694.83 4354.08 5509.42 4520.62 5475.7 5475.8 5314.69 6050.81 5543.46 6022.72 5527.33 4969.21 2691.29 4277.88 3920.42 6623.85 4931.53 6691.39 6082.81 3191.99 5367.52 4048.37 5030.91 5507.24 5101.59 6851.54 5935.47 2651.49 5512.23 5349.31 4649.22 5394.55 4256.43 5936.36 5229.48 5127.16 4249.46 4244.99 4643.31 6917.52 6256.02 5402.21 4668.71 7228.46 5102.36 8332.24 7134.64 4602.25 5293.9 5110.37 5664.98 4548.16 4322.15 4659.59 5025.39 3813.22 4377.07 5570.3 3848.93 5234.29 4711.62 4114.24 4645.58 5670.2 2976.22 5094.52 2682.24 5928.32 5415.19 4016.18 5526.75 5435.74 5560.26 5965.81 3702.37 2330.66 4177.19 3691.0 2845.98 5320.92 3948.23 5228.18 5787.31 4342.9 6122.55 5480.13 4270.53 6142.94 4931.38 4736.58 3485.26 3240.09 4556.36 3369.23 3688.8 3695.36 5893.5 4547.19 6020.48 3963.86 5076.35 5200.05 4091.8 5181.4 5166.79 4946.74 3950.63 4612.62 4275.57 3619.07 6385.23 5327.45 6185.89 2983.99 5660.85 4750.17 3990.25 4752.51 3758.07 3587.05 4880.14 4989.09 6362.14 6719.88 5978.82 6308.71 5978.9 2739.94 4790.08 4194.5 4329.05 4792.73 5264.06 4515.71 5358.59 6202.55 3817.13 5023.15 3844.9 5273.35 6375.99 4853.02 6259.23 4662.56 3457.48 3405.98 5417.15 5996.33 6631.19 4467.04 5817.25 3997.96 3460.94 2614.4 6184.4 4373.45 6229.37 4982.31 5269.18 5034.59 4406.1 6155.31 5065.11 5911.67 4223.33 4187.56 5082.47 4840.84 5513.6 5138.31 4901.41 4551.24 6387.01 7111.16 4871.44 4564.34 5088.44 6248.81 4998.21 3931.07 7440.72 3688.16 4681.72 3949.6 5661.62 5626.61 4439.35 6363.92 6205.93 3828.81 5309.98 5830.72 5289.52 5314.85 4305.43 4553.56 4942.77 5069.84 3629.62 5329.64 3323.28 4997.27 3708.04 6013.14 3610.4 4621.75 4581.13 6338.89 4219.07 5584.06 6480.17 3838.56 5872.05 6079.11 4256.67 4427.28 6430.39 4945.39 5376.71 4867.08 5407.78 6648.68 6632.99 5061.98 4923.24 7177.44 4307.48 6718.19 4407.87 5450.44 3848.54 3927.99 5266.5 5868.82 4051.44 4716.19 4301.06 5135.69 5344.25 5344.0 4501.51 4602.86 3856.59 2765.2 5572.95 5372.61 5413.79 3686.21 5402.24 6445.22 5013.42 4962.77 6101.92 5323.3 3082.32 4635.6 4765.02 3658.37 4448.13 5703.6 5070.29 6326.18 4807.28 4713.74 4266.03 4537.6 6179.96 4419.61 5147.36 6260.79 4563.46 4082.57 4236.14 5080.18 5941.4 4263.33 4454.63 4050.9 6695.82 5514.76 3456.98 4290.14 5191.63 5379.87 5925.6 5987.17 3979.82 6723.16 4746.52 4948.5 5651.07 5210.48 3627.55 6239.84 5865.39 5370.85 5629.39 3178.54 2684.03 6157.04 5075.55 4768.61 2261.36 4084.49 4220.03 5703.07 5449.46 6113.54 4662.43 3963.76 5169.9 5733.62 5282.91 4425.84 6510.17 4871.96 5331.02 4066.38 4523.88 6049.55 5709.62 4241.89 6405.76 4593.7 6045.46 4043.57 4138.42 5586.81 5006.58 3824.16 5011.31 5130.91 3868.18 3689.45 4527.02 5383.07 4531.14 7552.94 4519.22 4409.63 7644.38 5521.25 5949.46 3661.9 5136.08 3776.94 5246.47 4010.57 4522.21 5506.19 5280.69 6923.84 6166.29 4043.66 5294.77 6553.94 5282.51 3797.33 3004.16 7256.35 5742.65 5592.32 5835.78 5054.74 4877.67 4020.32 3498.2 4763.45 4481.53 4292.06 5077.33 5330.45 3948.17 5350.88 4959.34 4247.15 4602.85 6552.22 4051.34 6004.68 5379.09 5278.36 6799.4 5107.23 5222.16 4187.31 5558.68 3240.51 6191.29 7422.36 6719.94 5161.01 4950.67 5453.6 4709.05 3077.84 4630.82 5255.18 5528.53 4460.92 5460.65 5945.89 4105.55 4800.69 3279.1 5912.61 4099.77 4978.31 4981.9 4245.72 5941.72 3815.26 4150.99 5681.38 6318.18 5045.38 5125.78 4790.78 5452.83 4591.87 6422.84 5534.94 5180.76 6218.95 5533.42 4802.32 5533.72 4599.38 5730.33 4527.99 4628.4 4376.7 5409.63 5227.59 6051.83 4813.08 4263.16 5726.66 6799.88 4540.86 4767.78 3062.43 5426.78 4042.28 4863.23 3555.86 4402.67 4403.98 5381.16 4948.98 4414.48 5794.24 4537.32 4127.74 6562.18 4216.92 4478.15 5147.67 3771.48 5577.04 4986.77 6034.41 5178.99 4027.09 5801.99 4502.18 3312.06 3361.26 4993.35 4690.55 3678.08 5146.37 5518.57 5463.48 4543.1 5545.46 5680.94 5190.61 5832.37 4298.15 3973.12 4642.93 6024.75 5860.67 5987.42 5990.52 5235.17 6566.1 4560.84 6386.78 5227.52 6086.96 5163.02 4541.21 4302.5 4704.72 5908.1 5445.87 5198.77 4107.03 5423.0 5643.58 5215.05 5137.34 5197.52 5344.43 4373.47 5615.35 6169.11 4135.62 5266.22 5172.53 4860.33 4983.39 3685.13 3418.99 5366.52 4480.95 7132.12 5417.8 4836.16 4232.16 5151.11 5581.55 6550.44 3764.06 5941.9 4440.81 6642.76 6109.49 3764.1 4340.76 5652.0 4421.12 4435.36 6065.22 5565.13 4996.99 6193.35 2476.04 4656.78 3066.13 6048.7 4571.7 4177.94 4138.46 2775.04 3975.31 5198.29 4044.45 6070.58 5490.43 4896.11 5022.28 4318.48 6132.95 5226.97 5754.18 4270.74 4558.15 5132.68 6552.21 5227.02 5300.96 5670.0 5193.01 8325.01 3474.5 4523.39 6348.03 5829.22 5567.93 4497.78 2967.38 4835.83 5811.18 5463.41 4929.75 5254.49 4221.28 6045.22 4470.61 4456.39 4631.83 4156.38 4092.24 6009.88 6006.16 4344.58 5896.46 4850.01 3970.25 4271.69 6035.6 4285.32 3627.82 5262.19 6449.45 4285.66 5339.38 5008.63 4004.35 4763.96 3872.61 6293.89 3450.93 5737.75 6595.03 4350.12 3603.51 3834.43 6609.84 4344.51 4707.06 5491.37 3781.77 3860.83 4792.39 4250.88 5732.27 5434.47 4243.79 4779.5 5332.65 4159.35 4237.98 6439.37 6649.96 4896.39 3701.27 4729.43 5233.78 5105.16 5991.09 5126.91 4562.74 4164.68 4678.38 4742.68 5634.83 4810.12 6898.19 3821.72 5526.14 4244.9 4470.4 4986.51 5311.03 3930.79 5293.51 4238.4 5365.24 5097.45 4446.06 4047.87 5742.47 4185.61 3778.02 4095.75 2761.07 4367.78 3319.67 4076.59 5135.96 5222.51 5658.37 6074.94 3475.67 5278.56 7038.89 5146.37 6917.62 5433.65 6451.33 5604.35 5225.33 3091.67 4614.3 4384.88 4332.87 3633.79 6887.27 4806.34 6008.49 5050.65 5316.75 3633.87 3929.19 7099.43 6396.74 4516.28 5315.4 6048.86 4611.53 6894.26 5255.12 6625.18 4573.72 4917.99 5099.21 4298.45 5636.4 5164.1 4428.14 4972.17 5699.53 3783.54 5527.23 4222.77 5268.38 3863.67 4805.33 4814.12 5631.14 6137.8 5067.56 4442.22 4887.76 5413.31 6477.91 4303.19 4081.97 5514.84 6081.14 5421.53 3942.07 5480.83 5776.57 5448.61 4827.33 5495.84 6268.1 5347.48 5922.5 5776.37 4527.08 5486.68 5100.25 5094.48 5678.96 2681.29 6408.83 5576.92 5323.91 4163.74 4586.19 4296.69 6969.28 3665.95 5283.8 6471.42 6464.15 6016.19 6685.4 4479.11 4850.06 6332.01 7044.29 5980.95 4013.38 7085.01 4343.78 3012.99 5263.3 6316.56 5401.99 6420.81 3914.2 5653.9 5134.39 4256.57 7144.24 5133.97 6600.94 7443.72 3937.08 4374.35 4502.5 4011.77 4287.63 2965.79 4410.55 5805.86 5346.68 4049.02 5296.29 5839.71 6234.32 5997.88 4570.98 4585.31 5698.96 4275.07 6372.13 4124.49 5369.5 5714.25 3230.13 5325.96 5016.02 4581.37 4234.18 3352.35 6193.08 4909.65 2735.53 5116.6 4008.15 4811.32 4669.06 4286.49 6400.08 5580.92 4607.85 4220.46 3600.43 5683.26 5371.02 4906.82 3784.5 5513.57 5022.8 5499.11 5252.34 3921.08 5083.41 4190.31 5683.61 4558.46 5020.71 5737.92 5662.55 4360.23 3755.95 5889.35 5010.04 5388.78 5825.38 6238.32 6804.79 5642.35 5535.91 5404.01 6176.67 5955.86 5412.24 5887.38 4920.21 3936.95 4049.16 6069.3 6153.94 5887.01 6523.86 7693.4 4715.58 5784.3 3317.83 4287.53 3532.3 5598.74 6088.68 6070.3 5131.24 7055.53 6133.92 5113.21 4862.21 5965.78 7055.42 3836.45 5443.58 5731.57 5464.68 3056.7 5591.76 2685.81 5896.26 4394.56 6101.13 4587.67 5599.7 6918.35 4066.57 6357.47 4793.65 4891.38 2949.12 4533.37 4532.89 6040.74 2779.99 6942.34 4848.46 5851.61 6836.82 3862.77 5168.35 3858.17 3747.03 4631.99 2783.85 6184.88 4743.59 5829.32 5208.14 4450.7 5151.52 5769.98 5973.33 2221.99 5937.08 4788.58 6155.1 5260.34 5013.67 3719.84 6125.34 6261.42 4274.61 5975.63 6314.07 5687.85 6401.43 4747.55 4539.07 4510.8 7509.24 5093.82 5756.75 5951.81 4834.3 3924.14 6348.54 5156.76 6101.57 3856.53 5460.89 4054.22 5260.85 5742.09 5807.46 3658.05 4393.16 5478.11 3477.1 5388.39 4356.49 4326.48 4437.07 3449.37 4396.25 5092.24 3583.21 4347.74 5442.32 4135.08 4643.56 5612.21 5894.61 5046.21 5729.23 4178.4 5782.6 2586.12 5433.8 6444.77 6248.6 5703.74 5831.96 4475.83 4146.81 5064.79 4840.44 6639.64 5212.43 6318.23 4206.98 5454.12 4058.87 5948.71 5932.07 5844.72 7228.94 2884.65 4648.21 5393.65 3311.29 4595.12 3110.13 4549.69 5030.15 4740.98 3644.78 5526.31 3728.18 3185.39 4078.93 5128.77 5335.47 4526.81 3994.07 5491.9 3763.05 5551.95 5291.9 5067.46 5128.57 5687.83 4929.14 5196.67 5206.48 4709.35 5004.23 5669.65 5934.22 5011.84 5820.48 5253.55 7034.11 6946.21 5564.02 4497.59 4512.11 5759.46 5708.99 6333.29 4558.47 4691.91 4477.04 5480.3 5344.83 7046.11 3427.63 5216.26 6342.48 3687.65 5478.95 3851.85 5174.75 4984.46 5048.55 4024.31 3992.97 5989.05 4961.99 4441.22 5853.89 4386.8 6484.43 6423.81 6192.77 4312.15 5934.82 4583.52 4219.94 5633.61 6405.0 3918.87 5907.46 4659.16 4518.04 4009.62 3101.75 5369.08 4863.01 5620.74 6000.7 5945.08 6496.67 6586.45 5876.71 3780.23 5826.04 3471.03 4004.04 4359.62 5690.26 5607.14 5062.71 6057.22 4156.2 4289.17 4470.98 4933.65 5950.04 6098.1 4231.83 2435.33 4074.48 3614.96 4745.43 3886.68 4449.98 4255.34 4863.97 5439.49 5589.37 4887.52 6571.31 3634.5 4392.65 6413.15 6103.11 4955.16 4904.51 4147.31 5950.88 2202.77 5751.15 4149.55 6551.93 4140.4 4625.67 3485.54 4501.78 4458.64 7122.87 5048.19 6799.23 4264.91 5549.49 5399.29 3580.58 5356.79 4766.06 5233.29 5139.5 5604.21 6442.69 7493.3 5474.8 6320.71 5226.0 5624.49 5339.78 4373.3 4648.04 4750.78 5029.78 3923.03 4730.41 5696.88 3745.84 4643.85 4203.26 5411.85 5082.74 4413.85 6915.83 4844.57 3999.94 6072.45 4027.46 3901.8 5511.88 5941.61 5782.48 3735.24 4031.78 6574.95 6817.57 6853.04 3420.08 4912.04 7165.9 4771.65 4036.91 5110.11 4027.63 6379.14 6631.28 5420.67 5416.45 6459.51 5754.6 3288.01 6870.97 6201.86 5474.01 5307.35 7554.58 3380.69 4725.01 5966.75 5510.9 3657.69 4883.63 6418.11 4243.26 3572.94 4888.27 4153.84 6740.71 6487.56 5789.55 4874.18 2081.58 4011.37 2511.46 3979.54 4778.82 4312.56 3169.67 4968.03 4814.55 5304.13 5833.06 5944.09 3527.05 5698.77 6262.72 3095.48 3664.11 6607.87 3365.82 4166.08 6608.73 3979.26 5188.81 3999.48 6062.05 6939.12 4735.33 6171.13 6853.85 5092.37 4864.22 4020.4 3374.08 3497.9 2395.5 4188.87 5564.23 5151.21 5108.06 5398.64 4693.52 4568.41 3624.7 5262.35 4281.98 4320.42 4504.35 4701.5 5012.97 4891.67 6818.91 3503.65 5569.2 5350.88 5305.59 6114.89 4330.58 5351.86 4355.83 6056.87 5230.02 4342.18 3639.44 5166.89 5446.4 5725.37 5491.63 4505.28 5138.33 3492.83 6015.02 4922.49 5797.36 5119.86 5001.58 4820.17 4592.15 5084.17 6605.86 5423.42 4854.11 2775.69 4901.2 6505.78 5657.36 4612.06 5204.04 3361.92 3306.14 5467.84 5029.47 5490.58 4750.58 4863.79 4702.06 6515.84 5117.47 4163.5 5762.59 4861.06 4143.78 6481.79 5320.28 4298.67 5750.71 5873.69 5960.66 4472.17 4962.09 5654.31 5470.77 4831.47 5563.79 5516.95 4151.76 4406.4 3905.51 3493.47 4721.02 3546.71 4254.37 4596.75 5768.57 4498.25 4222.4 4914.45 4698.87 3573.73 4000.43 3984.88 4661.03 5318.53 5160.59 4732.09 5138.2 5783.48 7001.83 4593.7 3766.69 4349.13 5188.53 3429.57 4521.75 5410.33 4642.74 6735.97 3636.15 5483.7 5652.87 5135.63 6384.7 3152.86 3896.27 5963.36 5169.48 5087.14 6016.08 4731.21 3868.62 6064.71 6102.98 3425.69 4971.29 3743.76 6280.13 5244.22 3684.15 5585.14 7039.98 4729.42 5089.26 4633.05 4901.44 5971.22 2275.45 4909.31 5012.5 6522.59 6124.08 6519.43 5876.64 3619.79 5053.95 4270.15 5395.14 6710.88 3464.83 3967.48 2477.07 4923.41 5374.51 4538.95 5724.64 4123.6 4970.88 7092.87 5224.12 4850.14 3637.61 4569.12 6098.14 4796.58 4938.74 3493.7 6222.42 4200.03 5313.22 3474.39 3436.15 5328.22 4216.17 5711.11 6484.17 4575.94 5021.88 4938.72 5956.65 4597.29 4200.09 5931.77 5097.95 5313.12 5498.42 5351.56 3344.57 6448.66 5220.76 4453.97 6945.98 6412.67 4482.9 5513.8 5036.98 4882.66 6746.66 3840.21 4081.34 3908.56 4844.83 5377.37 5244.78 4311.48 4899.73 5018.69 6394.19 5952.38 5807.52 5518.11 4192.21 5712.35 4743.9 3124.7 3719.11 6060.17 6711.21 5510.45 4236.86 5832.29 4438.76 6456.58 4159.81 3886.72 5244.98 5415.45 4998.22 5533.19 3776.8 5711.62 5417.21 4785.25 5435.19 5461.55 3562.79 7093.13 3298.2 5926.11 6306.21 6667.68 6213.04 2990.77 3163.78 4497.31 4925.63 5965.15 3830.46 4305.16 4763.66 4666.81 4888.6 5882.65 6739.08 7042.12 4797.52 6326.39 4471.58 5462.21 5463.38 6313.06 5945.21 6470.3 6345.13 4050.08 5599.49 4719.7 4097.57 5452.42 5005.85 4893.49 5325.44 5102.75 4834.87 3672.21 5938.17 5760.22 4795.43 5607.3 2928.82 4638.18 4811.76 4196.37 5211.6 5806.31 3556.79 7317.04 3503.41 6204.65 3971.08 5438.92 6550.4 4244.49 4120.07 4775.04 4952.52 3646.95 4954.76 6334.53 4906.11 5869.67 4564.1 5457.66 4848.14 5366.22 5973.89 6193.73 5254.24 3742.11 5701.52 3597.43 6776.22 4467.13 3877.8 5153.18 6273.6 4730.14 5902.67 5454.11 2606.51 5393.76 3994.39 4941.02 3864.92 6006.89 3814.65 2955.36 3965.3 5792.98 5096.43 6156.21 6602.43 6104.26 4383.56 4990.79 4798.17 6865.76 4953.1 5253.37 5424.46 5235.11 5211.38 5266.01 5767.9 4721.32 6515.8 3293.56 5092.28 6413.11 5078.86 4918.77 4739.14 4780.2 5163.55 4636.5 4819.73 6817.32 3382.7 6471.55 5085.71 6343.14 6643.85 5501.93 6049.79 5862.86 5374.98 4390.41 6113.95 5226.56 5274.19 4901.07 3981.07 5186.3 6496.52 5017.5 3991.42 4388.63 5966.61 4940.28 2216.82 4514.79 4509.89 6752.75 3004.34 5269.38 3022.6 5375.1 4172.6 6100.73 4745.79 4198.94 5470.04 5456.71 4908.75 4211.82 6556.26 6003.78 2628.22 5684.25 4901.29 4124.76 4050.03 4147.49 4813.33 4833.55 4705.68 7224.99 4869.48 4749.96 3623.19 4658.24 4387.39 4745.16 5825.55 5509.51 3199.4 4316.5 7261.51 4968.14 4914.03 4158.91 5144.56 5321.17 5311.55 3360.86 4869.25 5545.21 4763.4 5024.32 4708.17 3779.45 2741.2 5806.61 4618.73 4983.1 5784.37 3668.93 6119.99 4960.64 4983.3 4128.1 5372.82 6592.93 4385.81 4034.05 6350.71 6436.74 3568.28 5583.61 5425.98 2895.63 5166.79 4516.53 6449.64 4857.84 3940.49 2040.66 6031.67 5384.76 5529.42 5274.14 6138.12 5257.12 4434.19 4903.82 5100.1 4940.42 3954.91 3703.1 5923.4 4623.61 4946.42 5409.66 4082.47 4319.79 6263.44 5960.56 5122.63 5774.97 4020.95 2315.64 6766.43 4703.08 4890.5 4488.85 3731.84 5010.2 3554.48 4579.69 4997.83 6123.03 5148.08 3718.69 5578.94 6192.0 5885.28 7610.49 6579.31 4286.17 6028.09 5323.55 5452.36 4609.02 3804.5 6486.37 4896.65 5561.74 6083.28 4788.08 6163.54 5212.37 5965.58 4607.18 5058.51 7200.89 3899.7 5162.67 4802.98 5760.98 5469.35 5384.86 3835.81 4019.34 5510.96 6653.07 4697.91 5071.98 5719.79 4371.08 5148.1 5224.64 5949.73 5214.63 3495.68 5086.29 4312.48 5527.13 3034.16 5139.18 5551.43 5049.99 4201.03 4333.87 5136.87 5638.7 5813.79 5790.42 5293.13 7123.04 6010.59 3682.35 4009.24 4446.58 4402.17 7778.01 5690.96 2460.79 4653.83 4456.11 6063.64 5996.66 5818.95 4986.71 6479.39 4093.99 5079.22 4122.92 6464.8 2978.76 3604.14 7016.27 4908.49 6622.11 4962.21 4689.15 4428.78 5884.9 5089.62 3685.65 4965.89 6790.73 5746.28 4371.99 4590.55 5659.95 5187.7 5243.43 4741.26 6090.91 5920.32 3561.29 4537.14 4186.6 3295.83 6413.02 2965.01 5203.08 5412.31 6235.57 3492.19 5374.07 4863.27 4584.5 4118.84 5916.16 3623.87 5163.77 6934.37 6027.62 3423.15 6098.95 5765.42 5453.98 4817.16 5653.03 3989.7 4157.29 4777.03 4246.61 5107.0 3684.56 5327.75 4946.23 4532.7 4852.58 4504.86 3217.67 5975.23 5079.64 4473.29 4509.46 996.652 4680.69 6500.49 3352.34 4972.18 2403.72 5078.59 4365.58 5134.33 5419.57 2646.13 4636.53 3629.49 5766.05 5117.64 3916.42 5429.3 4944.51 5532.72 4584.81 3220.8 5179.17 5579.39 5270.51 5490.75 4407.79 6548.29 5783.94 4278.57 6370.33 6318.25 5081.08 5001.87 3667.93 4493.79 5684.05 4644.88 3142.09 4028.22 5591.77 3756.96 5182.13 5906.57 5401.4 5053.15 51