ITEM: TIMESTEP
0
ITEM: NUMBER OF ATOMS
5000
ITEM: BOX BOUNDS ff ff pp
0.0000000000000000e+00 5.0000000000000000e+05
0.0000000000000000e+00 5.0000000000000000e+05
-2.5000000000000000e+03 2.5000000000000000e+03
ITEM: ATOMS id type mass diameter x y z v_velocity v_axialstress v_shearstress 
1 1 1.76715e+10 4796.58 2500 252500 0 0 -0 0 
2 1 1.76715e+10 3979.26 7500 252500 0 0 -0 0 
3 1 1.76715e+10 3471.03 12500 252500 0 0 -0 0 
4 1 1.76715e+10 5253.55 17500 252500 0 0 -1.8352e+12 4.92652e+11 
5 1 1.76715e+10 5820.48 22500 252500 0 0 -2.1934e+12 -1.153e+12 
6 1 1.76715e+10 5782.6 27500 252500 0 0 -3.16538e+12 3.55507e+11 
7 1 1.76715e+10 4862.21 32500 252500 0 0 -1.10528e+12 2.99261e+11 
8 1 1.76715e+10 5113.21 37500 252500 0 0 -0 0 
9 1 1.76715e+10 3929.19 42500 252500 0 0 -0 0 
10 1 1.76715e+10 4107.03 47500 252500 0 0 -0 0 
11 1 1.76715e+10 4478.15 52500 252500 0 0 -0 0 
12 1 1.76715e+10 5379.87 57500 252500 0 0 -1.4792e+12 -1.52636e+11 
13 1 1.76715e+10 5925.6 62500 252500 0 0 -1.12287e+12 -1.04285e+12 
14 1 1.76715e+10 4501.51 67500 252500 0 0 -2.6694e+11 -2.6694e+11 
15 1 1.76715e+10 4792.73 72500 252500 0 0 -1.91455e+11 1.91455e+11 
16 1 1.76715e+10 4736.58 77500 252500 0 0 -0 0 
17 1 1.76715e+10 4931.38 82500 252500 0 0 -0 0 
18 1 1.76715e+10 3485.26 87500 252500 0 0 -0 0 
19 1 1.76715e+10 4329.05 92500 252500 0 0 -0 0 
20 1 1.76715e+10 4151.94 97500 252500 0 0 -0 0 
21 1 1.76715e+10 4049.23 102500 252500 0 0 -0 0 
22 1 1.76715e+10 5337.48 107500 252500 0 0 -1.08103e+12 -7.46931e+11 
23 1 1.76715e+10 6124.89 112500 252500 0 0 -2.06004e+12 -2.06004e+12 
24 1 1.76715e+10 5708.81 117500 252500 0 0 -1.74686e+12 -1.74686e+12 
25 1 1.76715e+10 5252.48 122500 252500 0 0 -6.2112e+11 -6.2112e+11 
26 1 1.76715e+10 4780.03 127500 252500 0 0 -1.92458e+11 -1.92458e+11 
27 1 1.76715e+10 5495.39 132500 252500 0 0 -8.20643e+11 4.76364e+11 
28 1 1.76715e+10 3996 137500 252500 0 0 -0 0 
29 1 1.76715e+10 3856.1 142500 252500 0 0 -0 0 
30 1 1.76715e+10 4665.12 147500 252500 0 0 -0 0 
31 1 1.76715e+10 3383.4 152500 252500 0 0 -0 0 
32 1 1.76715e+10 4133.88 157500 252500 0 0 -0 0 
33 1 1.76715e+10 4834.9 162500 252500 0 0 -0 0 
34 1 1.76715e+10 3850.77 167500 252500 0 0 -0 0 
35 1 1.76715e+10 6044.04 172500 252500 0 0 -1.76808e+12 -5.63273e+10 
36 1 1.76715e+10 5415.48 177500 252500 0 0 -1.80958e+12 -6.84186e+11 
37 1 1.76715e+10 5120 182500 252500 0 0 -4.63136e+11 -2.06223e+11 
38 1 1.76715e+10 3863.18 187500 252500 0 0 -0 0 
39 1 1.76715e+10 2356.98 192500 252500 0 0 -0 0 
40 1 1.76715e+10 4998.37 197500 252500 0 0 -7.38107e+11 -7.38107e+11 
41 1 1.76715e+10 6182.6 202500 252500 0 0 -3.0663e+12 -5.03388e+11 
42 1 1.76715e+10 5492.18 207500 252500 0 0 -1.83191e+12 -1.19974e+12 
43 1 1.76715e+10 5258.36 212500 252500 0 0 -6.68877e+11 -6.68877e+11 
44 1 1.76715e+10 5061.3 217500 252500 0 0 -1.99788e+11 -1.99788e+11 
45 1 1.76715e+10 3642.12 222500 252500 0 0 -0 0 
46 1 1.76715e+10 3163.97 227500 252500 0 0 -0 0 
47 1 1.76715e+10 5812.43 232500 252500 0 0 -1.12656e+12 -4.22994e+10 
48 1 1.76715e+10 5122.66 237500 252500 0 0 -1.94788e+12 -5.06983e+11 
49 1 1.76715e+10 5906.14 242500 252500 0 0 -2.18455e+12 -8.39359e+11 
50 1 1.76715e+10 5484.19 247500 252500 0 0 -2.74226e+12 -2.74226e+12 
51 1 1.76715e+10 7513.1 252500 252500 0 0 -5.12818e+12 -2.07766e+12 
52 1 1.76715e+10 5254.28 257500 252500 0 0 -1.72961e+12 -1.72961e+12 
53 1 1.76715e+10 4436.4 262500 252500 0 0 -1.06175e+11 -1.06175e+11 
54 1 1.76715e+10 5733.48 267500 252500 0 0 -5.17074e+11 -2.03264e+11 
55 1 1.76715e+10 4672.91 272500 252500 0 0 -4.12616e+11 -4.12616e+11 
56 1 1.76715e+10 5580.89 277500 252500 0 0 -1.08631e+12 7.69069e+11 
57 1 1.76715e+10 3588.44 282500 252500 0 0 -0 0 
58 1 1.76715e+10 5645.7 287500 252500 0 0 -5.14099e+11 -5.14099e+11 
59 1 1.76715e+10 5176.86 292500 252500 0 0 -1.75621e+12 -1.75621e+12 
60 1 1.76715e+10 6810.52 297500 252500 0 0 -3.63429e+12 -2.1634e+12 
61 1 1.76715e+10 5840.26 302500 252500 0 0 -2.52762e+12 -7.85849e+11 
62 1 1.76715e+10 3672.51 307500 252500 0 0 -0 0 
63 1 1.76715e+10 6110.27 312500 252500 0 0 -1.70149e+12 -3.87677e+11 
64 1 1.76715e+10 5561.06 317500 252500 0 0 -1.44109e+12 -1.44109e+12 
65 1 1.76715e+10 5073.35 322500 252500 0 0 -3.96508e+11 -3.96508e+11 
66 1 1.76715e+10 3615.22 327500 252500 0 0 -0 0 
67 1 1.76715e+10 5670.04 332500 252500 0 0 -3.16427e+10 -3.16427e+10 
68 1 1.76715e+10 4380.59 337500 252500 0 0 -3.16427e+10 -3.16427e+10 
69 1 1.76715e+10 3589.27 342500 252500 0 0 -1.91285e+11 -1.91285e+11 
70 1 1.76715e+10 6716.79 347500 252500 0 0 -3.93936e+11 -3.93936e+11 
71 1 1.76715e+10 3607.45 352500 252500 0 0 -2.02652e+11 -2.02652e+11 
72 1 1.76715e+10 5759.91 357500 252500 0 0 -2.2036e+12 -2.01287e+12 
73 1 1.76715e+10 7613.27 362500 252500 0 0 -4.11817e+12 -3.30367e+12 
74 1 1.76715e+10 4951.03 367500 252500 0 0 -1.90304e+12 -1.90304e+12 
75 1 1.76715e+10 5529.52 372500 252500 0 0 -2.49634e+12 9.14585e+11 
76 1 1.76715e+10 5255.32 377500 252500 0 0 -1.29827e+12 -1.29827e+12 
77 1 1.76715e+10 6037.08 382500 252500 0 0 -1.51641e+12 -1.51641e+12 
78 1 1.76715e+10 5096.78 387500 252500 0 0 -1.98485e+12 -1.74964e+12 
79 1 1.76715e+10 6756.95 392500 252500 0 0 -2.99435e+12 -4.3079e+11 
80 1 1.76715e+10 4129.43 397500 252500 0 0 -8.37528e+11 -8.37528e+11 
81 1 1.76715e+10 6324.23 402500 252500 0 0 -1.9304e+12 1.15356e+12 
82 1 1.76715e+10 3843.58 407500 252500 0 0 -1.04883e+11 -1.04883e+11 
83 1 1.76715e+10 3320.52 412500 252500 0 0 -0 0 
84 1 1.76715e+10 4194.5 417500 252500 0 0 -0 0 
85 1 1.76715e+10 4270.53 422500 252500 0 0 -0 0 
86 1 1.76715e+10 5344.25 427500 252500 0 0 -4.0224e+11 -2.67613e+11 
87 1 1.76715e+10 5191.63 432500 252500 0 0 -7.3337e+11 6.35165e+10 
88 1 1.76715e+10 4593.7 437500 252500 0 0 -0 0 
89 1 1.76715e+10 4150.99 442500 252500 0 0 -0 0 
90 1 1.76715e+10 4216.92 447500 252500 0 0 -0 0 
91 1 1.76715e+10 4742.68 452500 252500 0 0 -0 0 
92 1 1.76715e+10 4344.58 457500 252500 0 0 -1.50649e+11 1.50649e+11 
93 1 1.76715e+10 5634.83 462500 252500 0 0 -1.11768e+12 -2.9565e+11 
94 1 1.76715e+10 5495.84 467500 252500 0 0 -1.80913e+12 -1.80913e+12 
95 1 1.76715e+10 6268.1 472500 252500 0 0 -1.8384e+12 -1.77799e+12 
96 1 1.76715e+10 4861.06 477500 252500 0 0 -1.69225e+12 -1.36722e+10 
97 1 1.76715e+10 5374.51 482500 252500 0 0 -9.55614e+11 -2.07328e+11 
98 1 1.76715e+10 5320.28 487500 252500 0 0 -3.19784e+12 -2.44841e+11 
99 1 1.76715e+10 6739.08 492500 252500 0 0 -3.22173e+12 -1.27321e+12 
100 1 1.76715e+10 4797.52 497500 252500 0 0 -1.66282e+12 -2.5793e+11 
101 1 1.76715e+10 4569.12 2500 257500 0 0 -0 0 
102 1 1.76715e+10 4298.67 7500 257500 0 0 -2.69801e+11 -5.43567e+10 
103 1 1.76715e+10 5960.66 12500 257500 0 0 -2.34466e+12 -1.19123e+12 
104 1 1.76715e+10 6608.73 17500 257500 0 0 -4.16277e+12 -1.07466e+12 
105 1 1.76715e+10 5011.84 22500 257500 0 0 -2.81176e+12 -1.77137e+12 
106 1 1.76715e+10 7034.11 27500 257500 0 0 -7.58655e+12 9.0972e+11 
107 1 1.76715e+10 6261.42 32500 257500 0 0 -3.23942e+12 -1.83488e+12 
108 1 1.76715e+10 4502.5 37500 257500 0 0 -4.7745e+11 -4.7745e+11 
109 1 1.76715e+10 3771.48 42500 257500 0 0 -0 0 
110 1 1.76715e+10 4043.57 47500 257500 0 0 -0 0 
111 1 1.76715e+10 4271.69 52500 257500 0 0 -0 0 
112 1 1.76715e+10 5681.38 57500 257500 0 0 -1.66571e+12 1.66571e+12 
113 1 1.76715e+10 4138.42 62500 257500 0 0 -4.00103e+10 4.00103e+10 
114 1 1.76715e+10 3708.04 67500 257500 0 0 -0 0 
115 1 1.76715e+10 5513.6 72500 257500 0 0 -1.14567e+12 1.14567e+12 
116 1 1.76715e+10 3240.09 77500 257500 0 0 -0 0 
117 1 1.76715e+10 4556.36 82500 257500 0 0 -3.99478e+11 -3.99478e+11 
118 1 1.76715e+10 6082.81 87500 257500 0 0 -1.14521e+12 3.46258e+11 
119 1 1.76715e+10 3191.99 92500 257500 0 0 -0 0 
120 1 1.76715e+10 4685.34 97500 257500 0 0 -1.7899e+11 -1.7899e+11 
121 1 1.76715e+10 5601.05 102500 257500 0 0 -1.46607e+12 4.44532e+11 
122 1 1.76715e+10 4929.8 107500 257500 0 0 -4.98829e+11 -1.64726e+11 
123 1 1.76715e+10 3586.91 112500 257500 0 0 -0 0 
124 1 1.76715e+10 3103 117500 257500 0 0 -0 0 
125 1 1.76715e+10 3554.9 122500 257500 0 0 -0 0 
126 1 1.76715e+10 4015.92 127500 257500 0 0 -0 0 
127 1 1.76715e+10 5542.21 132500 257500 0 0 -1.40434e+12 1.36743e+12 
128 1 1.76715e+10 4487.31 137500 257500 0 0 -1.84518e+10 -1.84518e+10 
129 1 1.76715e+10 3936.02 142500 257500 0 0 -0 0 
130 1 1.76715e+10 4044.71 147500 257500 0 0 -1.59076e+10 -1.59076e+10 
131 1 1.76715e+10 5980.74 152500 257500 0 0 -1.10961e+12 9.83586e+11 
132 1 1.76715e+10 4094.62 157500 257500 0 0 -4.71025e+10 -4.71025e+10 
133 1 1.76715e+10 4927.02 162500 257500 0 0 -1.17725e+12 5.85501e+11 
134 1 1.76715e+10 5546.39 167500 257500 0 0 -8.40717e+11 -8.40717e+11 
135 1 1.76715e+10 5325.36 172500 257500 0 0 -2.70147e+12 5.99045e+11 
136 1 1.76715e+10 5484.83 177500 257500 0 0 -2.8285e+12 1.10281e+12 
137 1 1.76715e+10 5085.53 182500 257500 0 0 -1.14839e+12 -1.10961e+11 
138 1 1.76715e+10 5351.6 187500 257500 0 0 -1.80759e+12 1.15874e+12 
139 1 1.76715e+10 4730.36 192500 257500 0 0 -1.42931e+11 4.04866e+10 
140 1 1.76715e+10 4715.55 197500 257500 0 0 -8.49008e+11 1.19909e+11 
141 1 1.76715e+10 5867.73 202500 257500 0 0 -2.19681e+12 3.66103e+11 
142 1 1.76715e+10 5013.56 207500 257500 0 0 -8.66889e+11 -2.34719e+11 
143 1 1.76715e+10 3951.75 212500 257500 0 0 -0 0 
144 1 1.76715e+10 4499.64 217500 257500 0 0 -0 0 
145 1 1.76715e+10 4375.68 222500 257500 0 0 -0 0 
146 1 1.76715e+10 5542.27 227500 257500 0 0 -3.80071e+11 -3.66497e+11 
147 1 1.76715e+10 5054.98 232500 257500 0 0 -2.18107e+12 7.82022e+10 
148 1 1.76715e+10 6030.06 237500 257500 0 0 -2.14865e+12 -7.07746e+11 
149 1 1.76715e+10 5170.02 242500 257500 0 0 -1.73204e+12 2.31946e+11 
150 1 1.76715e+10 3557.27 247500 257500 0 0 -0 0 
151 1 1.76715e+10 4927.31 252500 257500 0 0 -1.52526e+12 1.52526e+12 
152 1 1.76715e+10 4688.68 257500 257500 0 0 -0 0 
153 1 1.76715e+10 4402.52 262500 257500 0 0 -0 0 
154 1 1.76715e+10 4517.56 267500 257500 0 0 -1.56905e+11 1.56905e+11 
155 1 1.76715e+10 4182.53 272500 257500 0 0 -5.95652e+11 4.88218e+11 
156 1 1.76715e+10 5903.42 277500 257500 0 0 -9.81408e+11 8.73974e+11 
157 1 1.76715e+10 3955.56 282500 257500 0 0 -0 0 
158 1 1.76715e+10 3761.32 287500 257500 0 0 -0 0 
159 1 1.76715e+10 4118.05 292500 257500 0 0 -0 0 
160 1 1.76715e+10 4366.19 297500 257500 0 0 -1.06838e+12 1.06838e+12 
161 1 1.76715e+10 5553.16 302500 257500 0 0 -1.25732e+12 1.25732e+12 
162 1 1.76715e+10 2938.66 307500 257500 0 0 -0 0 
163 1 1.76715e+10 4940.78 312500 257500 0 0 -8.10625e+11 8.10625e+11 
164 1 1.76715e+10 4231.61 317500 257500 0 0 -0 0 
165 1 1.76715e+10 4008.92 322500 257500 0 0 -0 0 
166 1 1.76715e+10 3942.53 327500 257500 0 0 -0 0 
167 1 1.76715e+10 3379.84 332500 257500 0 0 -0 0 
168 1 1.76715e+10 4827.82 337500 257500 0 0 -0 0 
169 1 1.76715e+10 3997.1 342500 257500 0 0 -0 0 
170 1 1.76715e+10 3260.67 347500 257500 0 0 -0 0 
171 1 1.76715e+10 5123.52 352500 257500 0 0 -0 0 
172 1 1.76715e+10 4392.68 357500 257500 0 0 -9.53679e+10 9.53679e+10 
173 1 1.76715e+10 3038.33 362500 257500 0 0 -4.07249e+11 4.07249e+11 
174 1 1.76715e+10 4333.2 367500 257500 0 0 -9.57755e+11 -9.57755e+11 
175 1 1.76715e+10 7199.21 372500 257500 0 0 -6.04933e+12 1.43003e+12 
176 1 1.76715e+10 4523.7 377500 257500 0 0 -2.38247e+12 2.28831e+11 
177 1 1.76715e+10 2240.39 382500 257500 0 0 -0 0 
178 1 1.76715e+10 5091.39 387500 257500 0 0 -3.58408e+11 -1.23199e+11 
179 1 1.76715e+10 5293.9 392500 257500 0 0 -1.52258e+12 1.04098e+12 
180 1 1.76715e+10 3912.37 397500 257500 0 0 -3.45659e+10 -3.45659e+10 
181 1 1.76715e+10 6142.94 402500 257500 0 0 -3.67365e+12 2.5168e+12 
182 1 1.76715e+10 4727.24 407500 257500 0 0 -1.4305e+12 3.42782e+11 
183 1 1.76715e+10 4602.25 412500 257500 0 0 -0 0 
184 1 1.76715e+10 4790.08 417500 257500 0 0 -0 0 
185 1 1.76715e+10 5082.47 422500 257500 0 0 -2.66539e+11 2.66539e+11 
186 1 1.76715e+10 4763.45 427500 257500 0 0 -1.98143e+11 -6.35165e+10 
187 1 1.76715e+10 5445.87 432500 257500 0 0 -1.46136e+12 1.1997e+12 
188 1 1.76715e+10 3815.26 437500 257500 0 0 -0 0 
189 1 1.76715e+10 4704.72 442500 257500 0 0 -3.83012e+11 3.83012e+11 
190 1 1.76715e+10 4177.94 447500 257500 0 0 -1.41648e+11 1.41648e+11 
191 1 1.76715e+10 4571.7 452500 257500 0 0 -7.3361e+11 1.48412e+11 
192 1 1.76715e+10 5896.46 457500 257500 0 0 -1.01779e+12 -7.16489e+11 
193 1 1.76715e+10 5022.8 462500 257500 0 0 -9.85557e+11 -1.63522e+11 
194 1 1.76715e+10 3784.5 467500 257500 0 0 -0 0 
195 1 1.76715e+10 3780.23 472500 257500 0 0 -1.93969e+11 -1.33559e+11 
196 1 1.76715e+10 6481.79 477500 257500 0 0 -2.44762e+12 -1.23037e+10 
197 1 1.76715e+10 5224.12 482500 257500 0 0 -2.90316e+12 -2.06204e+12 
198 1 1.76715e+10 7042.12 487500 257500 0 0 -5.4351e+12 2.74986e+11 
199 1 1.76715e+10 4819.73 492500 257500 0 0 -2.85424e+12 -9.05726e+11 
200 1 1.76715e+10 6326.39 497500 257500 0 0 -3.38359e+12 1.95093e+12 
201 1 1.76715e+10 4471.58 2500 262500 0 0 -2.1579e+11 -2.1579e+11 
202 1 1.76715e+10 5873.69 7500 262500 0 0 -2.07826e+12 6.01964e+11 
203 1 1.76715e+10 4962.09 12500 262500 0 0 -1.09907e+12 5.43567e+10 
204 1 1.76715e+10 3999.48 17500 262500 0 0 -3.8013e+11 3.8013e+11 
205 1 1.76715e+10 4359.62 22500 262500 0 0 -8.16144e+11 -8.16144e+11 
206 1 1.76715e+10 6946.21 27500 262500 0 0 -4.35172e+12 2.71943e+12 
207 1 1.76715e+10 2586.12 32500 262500 0 0 -0 0 
208 1 1.76715e+10 5433.8 37500 262500 0 0 -3.1032e+11 3.1032e+11 
209 1 1.76715e+10 4011.77 42500 262500 0 0 -8.56922e+10 8.56922e+10 
210 1 1.76715e+10 5499.11 47500 262500 0 0 -1.63717e+10 1.63717e+10 
211 1 1.76715e+10 3633.87 52500 262500 0 0 -0 0 
212 1 1.76715e+10 5922.5 57500 262500 0 0 -2.18604e+12 7.84451e+11 
213 1 1.76715e+10 5198.77 62500 262500 0 0 -1.44201e+12 -1.44201e+12 
214 1 1.76715e+10 5987.17 67500 262500 0 0 -2.70069e+12 -1.28214e+12 
215 1 1.76715e+10 6013.14 72500 262500 0 0 -2.20441e+12 -2.95986e+11 
216 1 1.76715e+10 2765.2 77500 262500 0 0 -0 0 
217 1 1.76715e+10 4901.41 82500 262500 0 0 -3.21889e+10 1.74642e+10 
218 1 1.76715e+10 5110.37 87500 262500 0 0 -1.47171e+12 4.87801e+11 
219 1 1.76715e+10 5664.98 92500 262500 0 0 -7.17264e+11 -3.11555e+11 
220 1 1.76715e+10 4382.74 97500 262500 0 0 -6.67824e+11 2.20473e+11 
221 1 1.76715e+10 5927.43 102500 262500 0 0 -1.51085e+12 3.9975e+11 
222 1 1.76715e+10 4651.28 107500 262500 0 0 -9.90876e+11 2.67489e+11 
223 1 1.76715e+10 4384.42 112500 262500 0 0 -0 0 
224 1 1.76715e+10 3693.63 117500 262500 0 0 -0 0 
225 1 1.76715e+10 4516.43 122500 262500 0 0 -0 0 
226 1 1.76715e+10 5481.78 127500 262500 0 0 -6.99612e+11 -6.99612e+11 
227 1 1.76715e+10 5637.59 132500 262500 0 0 -1.87812e+12 -2.3952e+11 
228 1 1.76715e+10 4937.14 137500 262500 0 0 -3.5921e+11 -3.5921e+11 
229 1 1.76715e+10 5043.05 142500 262500 0 0 -1.14199e+12 6.79289e+10 
230 1 1.76715e+10 5816.2 147500 262500 0 0 -1.48079e+12 -1.48079e+12 
231 1 1.76715e+10 5693.81 152500 262500 0 0 -2.49244e+12 -3.99252e+11 
232 1 1.76715e+10 5109.54 157500 262500 0 0 -1.49754e+12 -1.49754e+12 
233 1 1.76715e+10 6483.19 162500 262500 0 0 -2.07203e+12 -3.09273e+11 
234 1 1.76715e+10 3829.13 167500 262500 0 0 -1.95197e+11 -1.95197e+11 
235 1 1.76715e+10 5945.65 172500 262500 0 0 -3.84543e+12 4.63503e+11 
236 1 1.76715e+10 6759.9 177500 262500 0 0 -6.54236e+12 2.86949e+11 
237 1 1.76715e+10 5538.89 182500 262500 0 0 -4.02566e+12 -2.04827e+12 
238 1 1.76715e+10 7021.47 187500 262500 0 0 -5.62127e+12 -6.26496e+11 
239 1 1.76715e+10 5416.38 192500 262500 0 0 -3.1064e+12 -1.78586e+12 
240 1 1.76715e+10 6059.59 197500 262500 0 0 -2.5321e+12 6.8715e+11 
241 1 1.76715e+10 2720.68 202500 262500 0 0 -0 0 
242 1 1.76715e+10 4955.55 207500 262500 0 0 -1.04007e+12 2.183e+11 
243 1 1.76715e+10 5701.86 212500 262500 0 0 -1.37214e+12 5.50375e+11 
244 1 1.76715e+10 3563.63 217500 262500 0 0 -0 0 
245 1 1.76715e+10 4238.81 222500 262500 0 0 -0 0 
246 1 1.76715e+10 4468.59 227500 262500 0 0 -9.607e+11 5.18686e+11 
247 1 1.76715e+10 5885.03 232500 262500 0 0 -8.08512e+11 3.66497e+11 
248 1 1.76715e+10 2837.58 237500 262500 0 0 -0 0 
249 1 1.76715e+10 5325.02 242500 262500 0 0 -6.38007e+11 -1.92179e+10 
250 1 1.76715e+10 5200.76 247500 262500 0 0 -7.4415e+11 -1.85446e+11 
251 1 1.76715e+10 5017.13 252500 262500 0 0 -1.36186e+11 -1.36186e+11 
252 1 1.76715e+10 4862.64 257500 262500 0 0 -1.18757e+11 5.87863e+10 
253 1 1.76715e+10 5185.34 262500 262500 0 0 -2.99852e+10 -2.99852e+10 
254 1 1.76715e+10 4432.58 267500 262500 0 0 -6.98215e+11 -6.98215e+11 
255 1 1.76715e+10 6684.56 272500 262500 0 0 -3.39887e+12 1.18593e+12 
256 1 1.76715e+10 3968.64 277500 262500 0 0 -1.29327e+12 4.76754e+11 
257 1 1.76715e+10 4688.67 282500 262500 0 0 -0 0 
258 1 1.76715e+10 2635.86 287500 262500 0 0 -0 0 
259 1 1.76715e+10 5292.64 292500 262500 0 0 -9.2819e+11 -8.95739e+11 
260 1 1.76715e+10 6166.5 297500 262500 0 0 -4.10885e+12 7.45385e+11 
261 1 1.76715e+10 5065.13 302500 262500 0 0 -1.78192e+12 -1.00905e+12 
262 1 1.76715e+10 5936.02 307500 262500 0 0 -1.40146e+12 -1.40146e+12 
263 1 1.76715e+10 5305.17 312500 262500 0 0 -1.03336e+12 -7.25928e+11 
264 1 1.76715e+10 4861.08 317500 262500 0 0 -1.03904e+11 -1.03904e+11 
265 1 1.76715e+10 4003.05 322500 262500 0 0 -0 0 
266 1 1.76715e+10 5390.22 327500 262500 0 0 -9.59308e+10 -3.22583e+10 
267 1 1.76715e+10 4712.33 332500 262500 0 0 -6.40945e+10 -6.40945e+10 
268 1 1.76715e+10 4805.87 337500 262500 0 0 -4.56252e+11 4.149e+11 
269 1 1.76715e+10 5227.21 342500 262500 0 0 -1.39004e+12 1.92449e+11 
270 1 1.76715e+10 5697.78 347500 262500 0 0 -2.4317e+12 8.19036e+11 
271 1 1.76715e+10 4667.36 352500 262500 0 0 -1.04829e+12 5.9186e+11 
272 1 1.76715e+10 4091.31 357500 262500 0 0 -2.89952e+11 -2.89952e+11 
273 1 1.76715e+10 6372.62 362500 262500 0 0 -1.95858e+12 5.43682e+11 
274 1 1.76715e+10 4295.38 367500 262500 0 0 -4.17496e+11 -4.17496e+11 
275 1 1.76715e+10 5615.42 372500 262500 0 0 -4.59478e+12 6.18831e+11 
276 1 1.76715e+10 7565.34 377500 262500 0 0 -8.53135e+12 -3.55803e+11 
277 1 1.76715e+10 5923.5 382500 262500 0 0 -3.21763e+12 -1.39967e+12 
278 1 1.76715e+10 4281.49 387500 262500 0 0 -1.28123e+11 -1.28123e+11 
279 1 1.76715e+10 4612.68 392500 262500 0 0 -1.09207e+12 1.09207e+12 
280 1 1.76715e+10 4973.83 397500 262500 0 0 -1.41801e+12 -2.27093e+11 
281 1 1.76715e+10 6342.25 402500 262500 0 0 -4.27182e+12 -1.16533e+12 
282 1 1.76715e+10 6691.39 407500 262500 0 0 -4.28965e+12 -1.41768e+12 
283 1 1.76715e+10 4840.84 412500 262500 0 0 -9.57642e+11 -9.57642e+11 
284 1 1.76715e+10 5135.69 417500 262500 0 0 -2.99803e+11 -2.99803e+11 
285 1 1.76715e+10 5344 422500 262500 0 0 -7.04882e+11 1.05276e+11 
286 1 1.76715e+10 4020.32 427500 262500 0 0 -4.11115e+10 -4.11115e+10 
287 1 1.76715e+10 6045.46 432500 262500 0 0 -2.78496e+12 2.33876e+12 
288 1 1.76715e+10 4245.72 437500 262500 0 0 -2.78124e+11 -2.78124e+11 
289 1 1.76715e+10 5908.1 442500 262500 0 0 -2.46768e+12 -1.70588e+11 
290 1 1.76715e+10 6048.7 447500 262500 0 0 -3.09747e+12 -2.07679e+12 
291 1 1.76715e+10 6133.92 452500 262500 0 0 -1.99177e+12 -7.36502e+11 
292 1 1.76715e+10 3719.84 457500 262500 0 0 -0 0 
293 1 1.76715e+10 4178.4 462500 262500 0 0 -7.03858e+10 7.03858e+10 
294 1 1.76715e+10 3095.48 467500 262500 0 0 -0 0 
295 1 1.76715e+10 4166.08 472500 262500 0 0 -0 0 
296 1 1.76715e+10 4123.6 477500 262500 0 0 -1.13867e+12 1.13867e+12 
297 1 1.76715e+10 4850.14 482500 262500 0 0 -5.4975e+10 3.78553e+10 
298 1 1.76715e+10 5163.55 487500 262500 0 0 -1.3871e+12 1.36998e+12 
299 1 1.76715e+10 3382.7 492500 262500 0 0 -1.25008e+11 -1.25008e+11 
300 1 1.76715e+10 6817.32 497500 262500 0 0 -4.14536e+12 3.89535e+12 
301 1 1.76715e+10 4319.79 2500 267500 0 0 -2.61208e+11 -2.61208e+11 
302 1 1.76715e+10 6098.14 7500 267500 0 0 -3.56378e+12 2.32848e+12 
303 1 1.76715e+10 4472.17 12500 267500 0 0 -3.5644e+11 -3.5644e+11 
304 1 1.76715e+10 4203.26 17500 267500 0 0 -2.66049e+11 2.66049e+11 
305 1 1.76715e+10 5188.81 22500 267500 0 0 -5.26949e+11 5.26949e+11 
306 1 1.76715e+10 4730.41 27500 267500 0 0 -1.54015e+12 5.55617e+11 
307 1 1.76715e+10 6057.22 32500 267500 0 0 -2.2844e+12 -1.00049e+11 
308 1 1.76715e+10 5062.71 37500 267500 0 0 -1.75281e+12 -1.13217e+12 
309 1 1.76715e+10 6125.34 42500 267500 0 0 -1.62532e+12 -6.7527e+11 
310 1 1.76715e+10 4527.08 47500 267500 0 0 -7.32175e+11 -8.33505e+10 
311 1 1.76715e+10 5347.48 52500 267500 0 0 -1.2343e+11 -1.2343e+11 
312 1 1.76715e+10 4850.01 57500 267500 0 0 -6.06247e+11 3.59387e+11 
313 1 1.76715e+10 3970.25 62500 267500 0 0 -0 0 
314 1 1.76715e+10 5147.67 67500 267500 0 0 -9.35975e+11 9.35975e+11 
315 1 1.76715e+10 3979.82 72500 267500 0 0 -0 0 
316 1 1.76715e+10 5011.31 77500 267500 0 0 -4.61229e+11 2.74208e+11 
317 1 1.76715e+10 5138.31 82500 267500 0 0 -4.60374e+11 -2.29609e+11 
318 1 1.76715e+10 5264.06 87500 267500 0 0 -4.85498e+11 -1.74642e+10 
319 1 1.76715e+10 4659.59 92500 267500 0 0 -8.20037e+11 -4.14329e+11 
320 1 1.76715e+10 6327.9 97500 267500 0 0 -1.84404e+12 1.39338e+11 
321 1 1.76715e+10 4048.37 102500 267500 0 0 -4.87531e+11 -4.87531e+11 
322 1 1.76715e+10 6355.42 107500 267500 0 0 -2.45792e+12 1.05619e+12 
323 1 1.76715e+10 4362.19 112500 267500 0 0 -4.81467e+11 -4.81467e+11 
324 1 1.76715e+10 5690.56 117500 267500 0 0 -1.01723e+12 1.51943e+11 
325 1 1.76715e+10 4948.92 122500 267500 0 0 -8.44528e+11 4.51777e+10 
326 1 1.76715e+10 3115.91 127500 267500 0 0 -0 0 
327 1 1.76715e+10 4493.48 132500 267500 0 0 -8.1922e+10 8.1922e+10 
328 1 1.76715e+10 3307.12 137500 267500 0 0 -0 0 
329 1 1.76715e+10 5924.89 142500 267500 0 0 -1.48234e+12 1.48234e+12 
330 1 1.76715e+10 4002.16 147500 267500 0 0 -0 0 
331 1 1.76715e+10 4138.16 152500 267500 0 0 -0 0 
332 1 1.76715e+10 4174.52 157500 267500 0 0 -6.6827e+11 6.6827e+11 
333 1 1.76715e+10 3486.22 162500 267500 0 0 -0 0 
334 1 1.76715e+10 4684.5 167500 267500 0 0 -5.71869e+11 -5.71869e+11 
335 1 1.76715e+10 6230.49 172500 267500 0 0 -4.87558e+12 3.70195e+11 
336 1 1.76715e+10 6458.82 177500 267500 0 0 -6.48922e+12 7.80782e+11 
337 1 1.76715e+10 5418.62 182500 267500 0 0 -3.33009e+12 9.58437e+11 
338 1 1.76715e+10 4601.27 187500 267500 0 0 -1.14246e+12 9.99351e+11 
339 1 1.76715e+10 5493.32 192500 267500 0 0 -1.39894e+12 -2.61815e+11 
340 1 1.76715e+10 5740.68 197500 267500 0 0 -3.86875e+12 2.42125e+11 
341 1 1.76715e+10 5926.61 202500 267500 0 0 -2.40596e+12 -2.15034e+12 
342 1 1.76715e+10 6051.14 207500 267500 0 0 -3.73571e+12 -1.0956e+12 
343 1 1.76715e+10 5836.15 212500 267500 0 0 -2.53611e+12 1.76997e+11 
344 1 1.76715e+10 3261.21 217500 267500 0 0 -0 0 
345 1 1.76715e+10 4345.55 222500 267500 0 0 -6.56009e+11 -6.56009e+11 
346 1 1.76715e+10 6704.06 227500 267500 0 0 -2.90249e+12 1.14364e+12 
347 1 1.76715e+10 3653.41 232500 267500 0 0 -3.17328e+11 -1.29511e+11 
348 1 1.76715e+10 3871.88 237500 267500 0 0 -0 0 
349 1 1.76715e+10 3856.01 242500 267500 0 0 -0 0 
350 1 1.76715e+10 5246.2 247500 267500 0 0 -7.7172e+11 7.7172e+11 
351 1 1.76715e+10 4390.66 252500 267500 0 0 -0 0 
352 1 1.76715e+10 5279.39 257500 267500 0 0 -7.18927e+11 7.18927e+11 
353 1 1.76715e+10 3673.74 262500 267500 0 0 -0 0 
354 1 1.76715e+10 5205.43 267500 267500 0 0 -8.99063e+11 -7.5294e+11 
355 1 1.76715e+10 6116.18 272500 267500 0 0 -6.00341e+12 -1.03024e+11 
356 1 1.76715e+10 7447.37 277500 267500 0 0 -6.66406e+12 -7.55344e+11 
357 1 1.76715e+10 4924.6 282500 267500 0 0 -1.48248e+12 -1.48248e+12 
358 1 1.76715e+10 4385.06 287500 267500 0 0 -4.01404e+11 4.01404e+11 
359 1 1.76715e+10 4733.32 292500 267500 0 0 -1.21467e+12 -1.18222e+12 
360 1 1.76715e+10 7184.19 297500 267500 0 0 -4.86172e+12 2.3603e+12 
361 1 1.76715e+10 2899.43 302500 267500 0 0 -5.2263e+10 -5.2263e+10 
362 1 1.76715e+10 2924.37 307500 267500 0 0 -0 0 
363 1 1.76715e+10 3867.67 312500 267500 0 0 -0 0 
364 1 1.76715e+10 4290.3 317500 267500 0 0 -0 0 
365 1 1.76715e+10 5399.73 322500 267500 0 0 -9.45549e+11 8.69989e+11 
366 1 1.76715e+10 4660.72 327500 267500 0 0 -6.96162e+10 -5.94375e+09 
367 1 1.76715e+10 3888.21 332500 267500 0 0 -0 0 
368 1 1.76715e+10 5891.05 337500 267500 0 0 -1.64172e+12 -7.70569e+11 
369 1 1.76715e+10 6038.78 342500 267500 0 0 -4.67769e+12 -1.41159e+12 
370 1 1.76715e+10 6902.81 347500 267500 0 0 -6.81278e+12 -1.29867e+12 
371 1 1.76715e+10 6644.76 352500 267500 0 0 -4.58775e+12 -9.70374e+11 
372 1 1.76715e+10 4254.17 357500 267500 0 0 -5.6183e+11 -5.6183e+11 
373 1 1.76715e+10 5629.19 362500 267500 0 0 -1.8724e+12 9.73109e+11 
374 1 1.76715e+10 5090.24 367500 267500 0 0 -9.69074e+11 -9.69074e+11 
375 1 1.76715e+10 5740.84 372500 267500 0 0 -2.84285e+12 -9.2948e+11 
376 1 1.76715e+10 6445.94 377500 267500 0 0 -5.58818e+12 3.83698e+11 
377 1 1.76715e+10 5530.87 382500 267500 0 0 -2.81512e+12 3.44107e+11 
378 1 1.76715e+10 4310.18 387500 267500 0 0 -9.03015e+11 -9.03015e+11 
379 1 1.76715e+10 7134.64 392500 267500 0 0 -5.57529e+12 -1.22674e+11 
380 1 1.76715e+10 5978.9 397500 267500 0 0 -3.97119e+12 7.92532e+10 
381 1 1.76715e+10 3629.62 402500 267500 0 0 -0 0 
382 1 1.76715e+10 4187.56 407500 267500 0 0 -5.49343e+11 5.49343e+11 
383 1 1.76715e+10 4997.27 412500 267500 0 0 -0 0 
384 1 1.76715e+10 4301.06 417500 267500 0 0 -0 0 
385 1 1.76715e+10 4877.67 422500 267500 0 0 -1.3854e+11 1.3854e+11 
386 1 1.76715e+10 4290.14 427500 267500 0 0 -5.327e+11 -5.327e+11 
387 1 1.76715e+10 6562.18 432500 267500 0 0 -3.152e+12 1.1884e+12 
388 1 1.76715e+10 4156.38 437500 267500 0 0 -5.50688e+11 -3.4751e+11 
389 1 1.76715e+10 5316.75 442500 267500 0 0 -1.59468e+12 1.59468e+12 
390 1 1.76715e+10 4541.21 447500 267500 0 0 -1.36665e+12 1.36665e+12 
391 1 1.76715e+10 4164.68 452500 267500 0 0 -1.86624e+11 1.86624e+11 
392 1 1.76715e+10 5669.65 457500 267500 0 0 -1.93722e+12 -6.76145e+10 
393 1 1.76715e+10 5934.22 462500 267500 0 0 -2.84325e+12 -1.10998e+12 
394 1 1.76715e+10 5624.49 467500 267500 0 0 -1.84112e+12 -1.84112e+12 
395 1 1.76715e+10 5762.59 472500 267500 0 0 -3.11001e+12 -2.19317e+12 
396 1 1.76715e+10 7092.87 477500 267500 0 0 -4.8051e+12 -9.63834e+11 
397 1 1.76715e+10 4666.81 482500 267500 0 0 -1.0998e+12 -1.0998e+12 
398 1 1.76715e+10 3703.1 487500 267500 0 0 -0 0 
399 1 1.76715e+10 3954.91 492500 267500 0 0 -2.66536e+11 -2.66536e+11 
400 1 1.76715e+10 6471.55 497500 267500 0 0 -3.29536e+12 2.76229e+12 
401 1 1.76715e+10 2965.01 2500 272500 0 0 -0 0 
402 1 1.76715e+10 6643.85 7500 272500 0 0 -3.32007e+12 2.96825e+12 
403 1 1.76715e+10 3637.61 12500 272500 0 0 -1.75908e+11 -1.75908e+11 
404 1 1.76715e+10 6222.42 17500 272500 0 0 -2.49263e+12 1.46721e+11 
405 1 1.76715e+10 5654.31 22500 272500 0 0 -2.6996e+12 3.5369e+11 
406 1 1.76715e+10 3745.84 27500 272500 0 0 -0 0 
407 1 1.76715e+10 5690.26 32500 272500 0 0 -1.95914e+12 1.95914e+12 
408 1 1.76715e+10 4156.2 37500 272500 0 0 -0 0 
409 1 1.76715e+10 4497.59 42500 272500 0 0 -6.78945e+11 9.97222e+10 
410 1 1.76715e+10 5965.78 47500 272500 0 0 -2.02362e+12 1.01923e+12 
411 1 1.76715e+10 4374.35 52500 272500 0 0 -2.12583e+11 -2.12583e+11 
412 1 1.76715e+10 4810.12 57500 272500 0 0 -1.03785e+12 4.70728e+11 
413 1 1.76715e+10 5643.58 62500 272500 0 0 -8.20199e+11 -8.20199e+11 
414 1 1.76715e+10 5215.05 67500 272500 0 0 -7.63338e+11 -3.09942e+11 
415 1 1.76715e+10 4292.06 72500 272500 0 0 -0 0 
416 1 1.76715e+10 5577.04 77500 272500 0 0 -1.08486e+12 3.55336e+11 
417 1 1.76715e+10 5006.58 82500 272500 0 0 -1.28329e+12 5.53763e+11 
418 1 1.76715e+10 4602.86 87500 272500 0 0 -1.18539e+11 1.18539e+11 
419 1 1.76715e+10 3688.8 92500 272500 0 0 -0 0 
420 1 1.76715e+10 4548.16 97500 272500 0 0 -5.4754e+11 5.4754e+11 
421 1 1.76715e+10 3369.23 102500 272500 0 0 -0 0 
422 1 1.76715e+10 5449.18 107500 272500 0 0 -2.22113e+12 1.04433e+12 
423 1 1.76715e+10 5492.26 112500 272500 0 0 -1.04905e+12 -1.04905e+12 
424 1 1.76715e+10 5244.78 117500 272500 0 0 -1.675e+12 -5.05827e+11 
425 1 1.76715e+10 5762.84 122500 272500 0 0 -2.50122e+12 1.24169e+12 
426 1 1.76715e+10 3937.74 127500 272500 0 0 -3.61168e+11 3.61168e+11 
427 1 1.76715e+10 4749.8 132500 272500 0 0 -5.21668e+11 -5.21668e+11 
428 1 1.76715e+10 6084.86 137500 272500 0 0 -2.68385e+12 -3.14221e+11 
429 1 1.76715e+10 5478.92 142500 272500 0 0 -2.01553e+12 -2.60771e+11 
430 1 1.76715e+10 4778.34 147500 272500 0 0 -3.66843e+11 -3.66843e+11 
431 1 1.76715e+10 5551.36 152500 272500 0 0 -1.73485e+12 -1.73485e+12 
432 1 1.76715e+10 6894.71 157500 272500 0 0 -3.98422e+12 -7.09929e+11 
433 1 1.76715e+10 4414.54 162500 272500 0 0 -8.18284e+11 -8.18284e+11 
434 1 1.76715e+10 3091.3 167500 272500 0 0 -0 0 
435 1 1.76715e+10 5789.98 172500 272500 0 0 -3.61065e+12 1.20009e+12 
436 1 1.76715e+10 6138.47 177500 272500 0 0 -4.82432e+12 -1.57771e+12 
437 1 1.76715e+10 7054.71 182500 272500 0 0 -7.05937e+12 -1.12263e+11 
438 1 1.76715e+10 5489.43 187500 272500 0 0 -2.28238e+12 -8.9779e+11 
439 1 1.76715e+10 3641.64 192500 272500 0 0 -0 0 
440 1 1.76715e+10 5747.75 197500 272500 0 0 -1.84951e+12 1.81747e+12 
441 1 1.76715e+10 4277.89 202500 272500 0 0 -1.43835e+11 1.11788e+11 
442 1 1.76715e+10 5054.25 207500 272500 0 0 -6.90871e+11 6.90871e+11 
443 1 1.76715e+10 4796.33 212500 272500 0 0 -3.95297e+11 3.95297e+11 
444 1 1.76715e+10 4195.44 217500 272500 0 0 -9.50781e+11 9.50781e+11 
445 1 1.76715e+10 5539.32 222500 272500 0 0 -1.07438e+12 -5.00117e+10 
446 1 1.76715e+10 5360.19 227500 272500 0 0 -4.12891e+12 6.83218e+11 
447 1 1.76715e+10 6496.85 232500 272500 0 0 -3.59094e+12 -1.35258e+12 
448 1 1.76715e+10 5600.93 237500 272500 0 0 -1.85562e+12 -1.36075e+12 
449 1 1.76715e+10 4874.39 242500 272500 0 0 -1.21993e+12 1.05798e+11 
450 1 1.76715e+10 5541.59 247500 272500 0 0 -9.90439e+11 4.70462e+11 
451 1 1.76715e+10 4124.71 252500 272500 0 0 -0 0 
452 1 1.76715e+10 5728.85 257500 272500 0 0 -2.5798e+12 1.8847e+12 
453 1 1.76715e+10 4827.23 262500 272500 0 0 -1.07554e+12 3.8044e+11 
454 1 1.76715e+10 4911.47 267500 272500 0 0 -7.92889e+11 -1.00693e+11 
455 1 1.76715e+10 5803.39 272500 272500 0 0 -2.68838e+12 -2.88922e+11 
456 1 1.76715e+10 5863.59 277500 272500 0 0 -4.39089e+12 2.00022e+12 
457 1 1.76715e+10 4381.97 282500 272500 0 0 -5.52943e+11 -5.52943e+11 
458 1 1.76715e+10 6257.19 287500 272500 0 0 -2.4581e+12 1.65916e+12 
459 1 1.76715e+10 3255.82 292500 272500 0 0 -0 0 