# vtk DataFile Version 2.0
Time step 35
ASCII
DATASET UNSTRUCTURED_GRID
POINTS 5000 float
2398.28 129192.0 0
8531.54 128566.0 0
12438.9 128400.0 0
16747.6 127718.0 0
27669.8 126102.0 0
33203.1 128789.0 0
57005.1 128370.0 0
72702.4 128712.0 0
87407.8 128746.0 0
105946.0 128815.0 0
111936.0 129294.0 0
133427.0 128925.0 0
157589.0 129061.0 0
162561.0 129216.0 0
167011.0 128758.0 0
171830.0 127641.0 0
177734.0 127679.0 0
182938.0 126865.0 0
187393.0 128720.0 0
196080.0 129044.0 0
201748.0 128404.0 0
207651.0 129168.0 0
212985.0 128504.0 0
225795.0 128833.0 0
230434.0 128704.0 0
241170.0 128406.0 0
252679.0 128391.0 0
259052.0 128866.0 0
268740.0 128864.0 0
273935.0 129160.0 0
278881.0 127809.0 0
297319.0 127774.0 0
303664.0 128560.0 0
312126.0 128983.0 0
337223.0 129084.0 0
345896.0 128631.0 0
361815.0 128177.0 0
372012.0 126197.0 0
377031.0 128169.0 0
382609.0 129042.0 0
388132.0 128341.0 0
394019.0 127658.0 0
399199.0 129328.0 0
403649.0 126586.0 0
408587.0 127797.0 0
422737.0 127603.0 0
427271.0 129313.0 0
432479.0 127116.0 0
442089.0 128410.0 0
446252.0 127990.0 0
450665.0 128759.0 0
455209.0 128700.0 0
460242.0 128545.0 0
465794.0 128932.0 0
471628.0 128189.0 0
477063.0 126992.0 0
485844.0 126923.0 0
491674.0 128462.0 0
497601.0 126956.0 0
2284.39 134210.0 0
6061.19 131887.0 0
11086.2 132918.0 0
17331.5 133620.0 0
22243.6 129365.0 0
28518.1 132454.0 0
34967.9 134063.0 0
38183.9 129373.0 0
40340.4 134382.0 0
42702.5 129524.0 0
47472.8 129432.0 0
48278.4 133427.0 0
52137.1 129530.0 0
57994.9 133811.0 0
62763.5 129446.0 0
67994.7 129579.0 0
67505.2 134217.0 0
72116.6 133832.0 0
77500.0 129458.0 0
82500.0 129448.0 0
82116.1 134263.0 0
87907.7 133504.0 0
92500.0 129486.0 0
97192.9 129507.0 0
101293.0 129424.0 0
97183.7 134256.0 0
102467.0 134159.0 0
108243.0 133406.0 0
117850.0 129478.0 0
123330.0 129555.0 0
128345.0 129676.0 0
127727.0 134109.0 0
138124.0 129608.0 0
142500.0 129529.0 0
142774.0 133952.0 0
147500.0 129463.0 0
146927.0 134300.0 0
152501.0 129433.0 0
151938.0 134178.0 0
156862.0 133110.0 0
161297.0 133930.0 0
166510.0 133430.0 0
172971.0 133210.0 0
178375.0 133092.0 0
183532.0 131933.0 0
188603.0 133165.0 0
192498.0 129881.0 0
193570.0 134025.0 0
198250.0 133389.0 0
203920.0 134024.0 0
213692.0 133055.0 0
209356.0 134239.0 0
218128.0 129589.0 0
222480.0 129602.0 0
222033.0 134428.0 0
226802.0 133068.0 0
232206.0 134128.0 0
235810.0 129701.0 0
246502.0 130407.0 0
257262.0 133504.0 0
263774.0 129954.0 0
262325.0 134130.0 0
267063.0 133707.0 0
271612.0 133013.0 0
277072.0 133417.0 0
282030.0 131142.0 0
286326.0 129450.0 0
291718.0 129906.0 0
292911.0 134398.0 0
298249.0 133285.0 0
303118.0 134230.0 0
307731.0 131130.0 0
307442.0 134423.0 0
317928.0 129603.0 0
323245.0 129506.0 0
322434.0 133975.0 0
327580.0 129776.0 0
332206.0 129375.0 0
341019.0 130295.0 0
337713.0 133927.0 0
343307.0 133321.0 0
350687.0 130553.0 0
347751.0 133719.0 0
355260.0 129539.0 0
352668.0 134443.0 0
361442.0 133490.0 0
357756.0 133959.0 0
365115.0 133185.0 0
367954.0 129513.0 0
372930.0 132998.0 0
378820.0 132719.0 0
382004.0 133858.0 0
388374.0 133430.0 0
393553.0 133805.0 0
402998.0 132785.0 0
398136.0 134239.0 0
412474.0 129447.0 0
408387.0 132078.0 0
412863.0 133389.0 0
417500.0 129492.0 0
417518.0 134007.0 0
422128.0 132240.0 0
428325.0 134256.0 0
433428.0 132350.0 0
437538.0 129469.0 0
443214.0 132693.0 0
447601.0 132000.0 0
451945.0 133237.0 0
457175.0 133428.0 0
466599.0 133502.0 0
475182.0 133482.0 0
481305.0 129855.0 0
486590.0 133113.0 0
496837.0 132465.0 0
6739.6 136933.0 0
11843.7 138749.0 0
16323.7 138828.0 0
23004.2 134877.0 0
20503.1 138839.0 0
27042.3 139286.0 0
32615.2 139120.0 0
38262.1 138895.0 0
44463.3 134724.0 0
42969.1 139280.0 0
47587.7 138148.0 0
52500.0 134490.0 0
56553.7 139432.0 0
62849.7 134545.0 0
62114.2 139404.0 0
67696.7 139061.0 0
73695.8 139375.0 0
77500.0 134617.0 0
81954.6 138989.0 0
86960.4 139020.0 0
92500.0 134626.0 0
92531.5 139377.0 0
97548.3 138775.0 0
107924.0 138186.0 0
112500.0 134562.0 0
116732.0 139247.0 0
112494.0 139460.0 0
117500.0 134643.0 0
120857.0 139097.0 0
122500.0 134566.0 0
125864.0 138477.0 0
132494.0 134460.0 0
137520.0 134475.0 0
140993.0 138073.0 0
146306.0 139191.0 0
156245.0 137671.0 0
169997.0 137997.0 0
176294.0 138849.0 0
182187.0 137072.0 0
188049.0 139327.0 0
194261.0 139052.0 0
199972.0 138494.0 0
208111.0 139146.0 0
204288.0 139489.0 0
213300.0 137866.0 0
217601.0 134660.0 0
222564.0 138702.0 0
226872.0 138073.0 0
237687.0 134952.0 0
237422.0 139378.0 0
243284.0 134778.0 0
248461.0 134481.0 0
246842.0 138550.0 0
252677.0 134951.0 0
257737.0 138256.0 0
262718.0 138908.0 0
267488.0 138162.0 0
273046.0 138254.0 0
279878.0 137477.0 0
282828.0 134829.0 0
287500.0 134540.0 0
291018.0 138705.0 0
296735.0 138329.0 0
302235.0 139466.0 0
307701.0 138853.0 0
312501.0 134734.0 0
317478.0 134478.0 0
318189.0 138969.0 0
322510.0 137980.0 0
327500.0 134520.0 0
332500.0 134592.0 0
336511.0 138591.0 0
341413.0 137526.0 0
346845.0 138106.0 0
351893.0 139278.0 0
356026.0 137832.0 0
361260.0 138192.0 0
366513.0 137267.0 0
371101.0 139139.0 0
377674.0 138654.0 0
384355.0 137195.0 0
392423.0 138627.0 0
397216.0 138587.0 0
402857.0 139026.0 0
409242.0 137722.0 0
419143.0 138697.0 0
424119.0 137058.0 0
432248.0 137973.0 0
437510.0 134536.0 0
437340.0 138714.0 0
442356.0 137929.0 0
448272.0 137072.0 0
454175.0 138641.0 0
462429.0 134915.0 0
463184.0 139453.0 0
470193.0 134682.0 0
472372.0 138004.0 0
477747.0 138954.0 0
480798.0 135130.0 0
492077.0 135363.0 0
491507.0 139425.0 0
496591.0 139034.0 0
2238.62 140130.0 0
2182.12 144544.0 0
8050.27 142773.0 0
13471.6 143375.0 0
17752.0 142672.0 0
22416.8 143213.0 0
32071.0 143408.0 0
37587.6 144099.0 0
43204.2 144343.0 0
49063.4 142939.0 0
51799.7 139912.0 0
53807.2 144612.0 0
59222.5 144110.0 0
63616.6 143735.0 0
72603.0 144250.0 0
78211.2 139814.0 0
77068.8 143734.0 0
82136.2 144010.0 0
87334.1 144194.0 0
97732.3 144127.0 0
102630.0 139921.0 0
107686.0 143684.0 0
113112.0 143789.0 0
118138.0 143723.0 0
123419.0 143084.0 0
127500.0 144641.0 0
131158.0 140176.0 0
136445.0 140128.0 0
137738.0 144042.0 0
142523.0 144192.0 0
151835.0 140789.0 0
148001.0 143800.0 0
156828.0 143066.0 0
161703.0 139621.0 0
160406.0 144434.0 0
166528.0 141440.0 0
170842.0 144026.0 0
182233.0 142551.0 0
191646.0 144449.0 0
197223.0 143779.0 0
203055.0 143633.0 0
217709.0 139594.0 0
214360.0 143536.0 0
222023.0 142960.0 0
227508.0 143623.0 0
232445.0 139593.0 0
234330.0 143974.0 0
237872.0 142702.0 0
241792.0 140031.0 0
241750.0 144634.0 0
246212.0 143735.0 0
251785.0 139843.0 0
255873.0 142972.0 0
260337.0 142643.0 0
266351.0 142845.0 0
271758.0 144523.0 0
278362.0 142980.0 0
283555.0 139762.0 0
284358.0 144501.0 0
287217.0 139831.0 0
288759.0 142984.0 0
298941.0 144629.0 0
313208.0 139978.0 0
316254.0 143684.0 0
312166.0 144503.0 0
321076.0 143210.0 0
326813.0 139862.0 0
329893.0 143406.0 0
331856.0 139580.0 0
339780.0 142917.0 0
346088.0 144360.0 0
357350.0 141789.0 0
361674.0 144180.0 0
366552.0 141959.0 0
382813.0 142711.0 0
387369.0 144569.0 0
388338.0 140384.0 0
399508.0 144196.0 0
408059.0 143072.0 0
404320.0 144221.0 0
414411.0 140277.0 0
416949.0 144079.0 0
427684.0 140094.0 0
425656.0 143721.0 0
431064.0 144165.0 0
437116.0 142909.0 0
441813.0 143515.0 0
446526.0 142071.0 0
450850.0 142572.0 0
458990.0 139689.0 0
455410.0 144412.0 0
461203.0 144105.0 0
467518.0 139564.0 0
466979.0 143890.0 0
472596.0 142963.0 0
478849.0 144454.0 0
482622.0 139825.0 0
487506.0 140926.0 0
492124.0 143281.0 0
1482.5 149222.0 0
7153.18 149080.0 0
11903.1 147114.0 0
17160.4 147852.0 0
23051.7 148597.0 0
26987.5 145210.0 0
30223.4 147947.0 0
34874.2 148741.0 0
39763.4 148163.0 0
48580.1 148163.0 0
57212.7 148502.0 0
63066.0 148510.0 0
68064.9 144733.0 0
73400.0 148309.0 0
78301.0 148883.0 0
83592.3 148951.0 0
88396.7 149011.0 0
92269.3 144707.0 0
92507.4 149549.0 0
97237.1 149542.0 0
101195.0 149607.0 0
102767.0 145378.0 0
105586.0 149200.0 0
111306.0 148373.0 0
116639.0 148981.0 0
122098.0 148274.0 0
126930.0 148685.0 0
131218.0 149385.0 0
132690.0 145004.0 0
136577.0 148592.0 0
147011.0 148077.0 0
153418.0 145443.0 0
157941.0 149002.0 0
164429.0 145143.0 0
167048.0 148017.0 0
163658.0 149628.0 0
177032.0 145417.0 0
182933.0 149470.0 0
186625.0 144961.0 0
193693.0 148535.0 0
189204.0 149368.0 0
198249.0 149667.0 0
203175.0 148734.0 0
208748.0 145493.0 0
212116.0 149744.0 0
218717.0 144841.0 0
216321.0 148153.0 0
221176.0 148490.0 0
231983.0 148473.0 0
237943.0 147438.0 0
242843.0 149287.0 0
248030.0 148814.0 0
251519.0 145101.0 0
252899.0 149129.0 0
257728.0 148154.0 0
262638.0 146217.0 0
267589.0 148796.0 0
278480.0 149635.0 0
283574.0 149088.0 0
288835.0 148305.0 0
292983.0 144700.0 0
293487.0 149297.0 0
303985.0 144860.0 0
302639.0 149166.0 0
307500.0 144684.0 0
307117.0 149525.0 0
311943.0 149244.0 0
316968.0 148119.0 0
325850.0 144795.0 0
322298.0 148804.0 0
330940.0 148921.0 0
327152.0 149664.0 0
334357.0 145400.0 0
341519.0 148410.0 0
337121.0 149299.0 0
352844.0 144854.0 0
357892.0 148366.0 0
367105.0 146866.0 0
362981.0 149154.0 0
371934.0 144772.0 0
377880.0 146105.0 0
383271.0 148725.0 0
388207.0 148750.0 0
393045.0 145297.0 0
403055.0 148198.0 0
408163.0 147922.0 0
412348.0 144742.0 0
414683.0 148389.0 0
417928.0 149639.0 0
421364.0 145331.0 0
427477.0 148173.0 0
431258.0 149593.0 0
436123.0 147892.0 0
441992.0 149176.0 0
448328.0 147583.0 0
454025.0 149571.0 0
459443.0 149715.0 0
464979.0 148994.0 0
473886.0 148180.0 0
481986.0 149408.0 0
484706.0 144966.0 0
489148.0 145690.0 0
486774.0 149301.0 0
496754.0 145676.0 0
2749.46 153260.0 0
12669.7 151619.0 0
18087.9 153621.0 0
23744.8 154355.0 0
28647.7 151994.0 0
33631.2 154297.0 0
39133.0 153003.0 0
43681.3 149999.0 0
43743.0 154209.0 0
48691.6 154132.0 0
53133.5 150611.0 0
59718.8 153514.0 0
64870.3 154614.0 0
68312.1 149909.0 0
68288.8 154101.0 0
72213.4 152188.0 0
76320.0 153779.0 0
81941.2 154371.0 0
87886.4 154080.0 0
96906.6 154115.0 0
92637.1 154477.0 0
101491.0 154244.0 0
106437.0 154537.0 0
[...]
POINT_DATA 5000
SCALARS Radius float 1
LOOKUP_TABLE default
4796.58 3979.26 3471.03 5253.55 5782.6 4862.21 5379.87 4792.73 3485.26 5337.48 6124.89 5495.39 4133.88 4834.9 3850.77 6044.04 5415.48 5120.0 3863.18 4998.37 6182.6 5492.18 5258.36 3163.97 5812.43 5906.14 7513.1 5254.28 5733.48 4672.91 5580.89 6810.52 5840.26 6110.27 4380.59 6716.79 7613.27 5529.52 5255.32 6037.08 5096.78 6756.95 4129.43 6324.23 3843.58 4270.53 5344.25 5191.63 4150.99 4216.92 4742.68 4344.58 5634.83 5495.84 6268.1 4861.06 5320.28 6739.08 4797.52 4569.12 4298.67 5960.66 6608.73 5820.48 7034.11 6261.42 5113.21 4502.5 3929.19 4107.03 4043.57 4478.15 5681.38 5925.6 4501.51 3708.04 5513.6 4736.58 4931.38 4556.36 6082.81 4329.05 4151.94 4049.23 4685.34 5601.05 4929.8 5708.81 5252.48 4780.03 4015.92 3996.0 3856.1 3936.02 4665.12 4044.71 3383.4 5980.74 4094.62 4927.02 5546.39 5325.36 5484.83 5085.53 5351.6 2356.98 4730.36 4715.55 5867.73 3951.75 5013.56 5061.3 3642.12 4375.68 5542.27 5054.98 5122.66 5484.19 4688.68 4436.4 4402.52 4517.56 4182.53 5903.42 3588.44 5645.7 5176.86 4118.05 4366.19 5553.16 3672.51 2938.66 5561.06 5073.35 4008.92 3615.22 5670.04 3589.27 4827.82 3997.1 3607.45 3260.67 5759.91 5123.52 3038.33 4392.68 4333.2 4951.03 7199.21 4523.7 2240.39 5091.39 5293.9 6142.94 3912.37 3320.52 4727.24 4602.25 4194.5 4790.08 5082.47 4763.45 5445.87 4593.7 4704.72 4177.94 4571.7 5896.46 3784.5 6481.79 5374.51 7042.12 6326.39 5873.69 4962.09 3999.48 5011.84 4359.62 6946.21 2586.12 5433.8 3771.48 4011.77 5499.11 4271.69 5922.5 4138.42 5198.77 5987.17 6013.14 3240.09 4901.41 5110.37 3191.99 5664.98 4382.74 4651.28 3586.91 3693.63 4384.42 3103.0 4516.43 3554.9 5481.78 5542.21 4487.31 5043.05 5816.2 5109.54 5945.65 6759.9 5538.89 7021.47 5416.38 6059.59 4955.55 2720.68 5701.86 4499.64 4238.81 4468.59 6030.06 2837.58 5170.02 3557.27 5200.76 4927.31 4862.64 5185.34 4432.58 6684.56 3968.64 3955.56 3761.32 5292.64 6166.5 5065.13 5936.02 4940.78 4231.61 4861.08 4003.05 3942.53 3379.84 4805.87 5227.21 5697.78 4667.36 4091.31 6372.62 4295.38 5615.42 7565.34 5923.5 4612.68 4973.83 6342.25 6691.39 5135.69 5344.0 6045.46 3815.26 4245.72 5908.1 6048.7 6133.92 5022.8 4178.4 3780.23 4166.08 4123.6 5224.12 4819.73 3382.7 6817.32 4471.58 4319.79 6098.14 4472.17 4203.26 5188.81 6057.22 5062.71 6125.34 4527.08 3633.87 5347.48 4850.01 3970.25 3979.82 2765.2 5011.31 5138.31 5264.06 6327.9 5927.43 6355.42 4362.19 5690.56 4948.92 3115.91 5637.59 4937.14 3307.12 5924.89 5693.81 4002.16 4174.52 6483.19 3486.22 3829.13 6230.49 5418.62 5493.32 5740.68 5926.61 3563.63 5836.15 4345.55 6704.06 5885.03 3653.41 3871.88 5325.02 3856.01 5246.2 5017.13 5279.39 3673.74 5205.43 6116.18 7447.37 4688.67 4924.6 2635.86 4385.06 7184.19 5305.17 4290.3 3867.67 5399.73 5390.22 3888.21 4712.33 6038.78 6902.81 4254.17 5629.19 5090.24 5530.87 4310.18 4281.49 5978.9 4187.56 3629.62 4840.84 4301.06 4020.32 4290.14 6562.18 4156.38 5316.75 4541.21 4164.68 3719.84 5669.65 5934.22 3095.48 5624.49 5762.59 7092.87 4850.14 5163.55 3954.91 2965.01 6643.85 3637.61 6222.42 5654.31 4730.41 3745.84 5690.26 4156.2 5965.78 4810.12 5643.58 5147.67 4292.06 5577.04 5006.58 4602.86 4659.59 3688.8 4548.16 3369.23 4048.37 5449.18 5492.26 5244.78 5762.84 3937.74 4749.8 4493.48 6084.86 4778.34 4138.16 6894.71 4684.5 3091.3 4414.54 6458.82 7054.71 4601.27 3641.64 5489.43 5747.75 4277.89 6051.14 4796.33 3261.21 4195.44 5539.32 6496.85 5600.93 4874.39 5541.59 4390.66 4124.71 5728.85 4827.23 4911.47 5863.59 4381.97 6257.19 4733.32 3255.82 2899.43 2812.98 2924.37 4065.69 5603.15 4695.45 4660.72 6052.7 3921.18 3798.62 5891.05 5308.1 3666.57 6644.76 5655.21 4786.6 4645.41 5740.84 6445.94 5542.14 4218.06 7134.64 4716.19 5514.76 4997.27 3456.98 3498.2 4877.67 3066.13 4302.5 6006.16 6009.88 7055.53 5013.67 5826.04 5339.78 4970.88 4636.5 4666.81 3703.1 4940.42 6471.55 5499.39 5501.93 5463.38 5945.21 4938.74 5696.88 5607.14 4497.59 3923.03 5975.63 4374.35 6396.74 4138.46 5215.05 2775.04 3821.72 4986.77 6318.18 5586.81 4621.75 3948.17 4551.24 5358.59 4220.88 4515.71 6519.71 6640.13 5082.6 5478.92 5810.84 4230.54 5551.36 5094.44 3748.24 4655.49 4467.94 4850.81 5789.98 6138.47 5527.54 5573.7 4727.62 5054.25 4055.8 7325.81 5280.17 5360.19 4794.96 5083.08 6834.49 6337.56 5525.39 5803.39 4024.3 6394.38 5555.28 5242.73 4737.14 5556.96 5788.23 5581.75 6392.01 4907.89 6730.19 4937.02 4073.93 3735.44 6043.3 5952.75 4433.59 4320.28 6122.55 2739.94 4931.53 5480.13 6308.71 3323.28 6695.82 6405.76 5794.24 5105.16 5448.61 5050.65 4827.33 5206.48 5513.57 5729.23 3365.82 4538.95 4143.78 5965.15 4763.66 6090.91 4946.42 5923.4 5085.71 6116.33 5644.82 6343.14 5750.71 4831.47 4643.85 4004.04 5252.34 5564.02 4274.61 2965.79 6898.19 6035.6 4481.53 5330.45 4581.13 3610.4 6387.01 5367.52 3092.35 4322.15 5210.03 5478.47 5351.39 6142.37 4933.21 5375.47 6038.14 2540.31 5120.49 6029.66 5262.61 6302.8 5697.4 6038.2 4270.95 4005.44 5206.78 6425.26 5143.58 6186.19 4484.76 4839.34 4840.01 2980.99 7933.0 4455.12 3998.5 5173.87 5938.34 5380.13 5118.27 5169.36 5932.23 4686.65 5791.61 5834.74 3369.13 4479.66 3043.85 5461.13 3599.45 4907.06 5489.34 5163.9 5708.14 5537.72 6332.36 6155.31 4223.33 5911.67 5709.62 5835.78 4127.74 2476.04 4678.38 3942.07 7443.72 3937.08 5260.34 4709.35 6586.45 4373.3 5226.0 4163.5 5724.64 4780.2 5100.1 3561.29 4963.34 5019.93 3295.83 5081.78 4260.92 6263.44 5774.97 5462.21 4020.95 6313.06 5470.77 3474.39 6470.3 6062.05 4289.17 6072.45 4410.55 5526.14 5137.34 5423.0 3856.59 4219.07 5413.79 6338.89 6202.55 5025.39 4714.54 3629.96 5893.5 3320.11 5030.91 6022.17 5119.37 6061.47 6163.38 4566.18 4723.12 4964.09 5201.36 5024.9 5409.61 5094.81 5972.06 5713.22 5555.88 6732.43 5028.96 3866.16 6362.12 3778.1 5152.36 4511.82 5611.2 4220.65 6820.42 4816.2 4894.16 4896.52 5711.87 3372.79 4941.22 5282.64 4669.66 4808.52 5367.2 5607.24 4726.76 5053.92 5839.13 5495.68 4863.72 5002.48 4262.82 3920.42 5102.36 8332.24 4342.9 4553.56 5329.64 4051.44 6049.55 5991.09 5133.97 6600.94 4788.58 5371.02 6155.1 5876.71 4750.78 5029.78 6515.84 4888.6 5078.86 4918.77 4371.99 4219.78 3885.86 4459.28 4479.94 6250.23 5960.56 4118.84 5862.86 3493.7 4200.03 6939.12 5082.74 4735.33 6915.83 5092.37 6444.77 7099.43 4287.63 5198.29 5315.4 6449.45 5077.33 4746.52 3689.45 5572.95 6723.16 5584.06 7111.16 4547.19 3817.13 5507.24 3982.23 4583.31 4503.89 5806.08 3459.9 4853.39 4997.27 4093.08 4809.42 5543.27 4306.53 4717.05 5659.17 6135.57 4312.67 5861.71 4359.04 3183.98 4989.15 3794.63 5017.78 4524.28 6175.81 4727.24 6677.09 5826.64 5201.67 6321.41 4089.76 4751.02 3192.41 5184.56 4987.87 4715.72 3315.57 5804.71 5046.33 4764.96 4242.52 5356.51 6352.26 3847.38 3818.59 4087.15 3057.03 4143.08 7500.97 6623.85 5228.18 5787.31 5065.11 5069.84 4978.31 4050.9 4241.89 4099.77 5054.74 5941.72 4537.32 4656.78 5126.91 3600.43 5131.24 5196.67 6496.67 5474.8 6262.72 3664.11 4925.63 2990.77 5882.65 4739.14 5187.7 4188.3 6261.75 5235.29 5177.64 4255.31 5453.3 6413.02 4863.27 3492.19 4584.5 5122.63 6049.79 5374.98 4719.7 5274.19 4406.4 5411.85 4844.57 4027.46 6314.07 5776.37 4516.28 3627.82 3975.31 4044.45 3824.16 5125.78 5344.43 3868.18 4373.47 5045.38 5372.61 3686.21 6480.17 5023.15 4377.07 6851.54 3813.22 5570.3 4336.42 5243.29 7589.94 4449.22 3130.65 5856.11 5287.2 4109.88 5998.38 5013.13 5423.8 5080.66 4270.24 3417.33 4926.42 4164.13 5015.69 4642.34 4947.52 5874.89 4305.57 6959.81 4829.35 4389.21 3791.79 4424.7 4925.44 4754.05 5526.55 6084.93 5215.15 3697.96 4739.42 5538.93 5020.12 5727.3 2631.9 5281.28 6255.18 4277.88 4668.71 4758.21 7228.46 3948.23 5978.82 5266.5 3927.99 5868.82 4948.98 5227.52 4414.48 4092.24 4981.9 5163.02 7144.24 4906.82 5687.83 5004.23 4648.04 6607.87 5117.47 4721.32 3293.56 3163.78 5274.14 4434.19 4903.82 5746.28 4623.61 4082.47 5511.6 4338.08 4378.3 6134.99 4094.73 4407.9 4440.57 5548.29 6766.43 4703.08 2315.64 6345.13 5226.56 5516.95 5313.22 4413.85 3999.94 4470.98 4864.22 5759.46 3921.08 4190.31 5678.96 5262.19 4244.9 6070.58 6034.41 5350.88 5130.91 5402.24 4519.22 6445.22 3844.9 5101.59 3963.86 3848.93 4306.11 5935.47 3402.32 5903.66 5628.24 5004.67 5365.89 3327.49 5992.26 4234.94 3960.8 4562.29 4980.85 5714.58 5110.45 5208.32 5248.77 4083.97 4520.1 4607.02 5153.74 4528.09 3895.51 4293.03 4165.81 5813.4 6291.51 4128.98 5882.89 6246.22 4951.47 4188.32 5246.61 4307.28 4100.38 5344.77 4723.48 4899.11 5097.87 4745.45 4278.07 7267.18 5320.92 5269.18 4406.1 6362.14 5034.59 6719.88 4454.63 5080.18 4523.88 3279.1 4066.38 4403.98 4560.84 4729.43 5776.57 4562.74 5598.74 7493.3 6442.69 6320.71 3464.83 5698.77 6413.11 4305.16 5092.28 4965.89 5659.95 4152.85 2908.7 4453.64 4517.73 5469.47 5660.16 4989.56 4718.54 2588.37 6736.03 6235.57 3623.87 5916.16 4390.41 6113.95 5599.49 4097.57 3905.51 5017.5 5563.79 3901.8 6171.13 5511.88 5083.41 7055.42 5486.68 6048.86 4285.32 5490.43 5022.28 5452.83 4959.34 4948.5 4527.02 4531.14 3695.36 4564.34 3838.56 4871.44 5076.35 6020.48 6375.99 5200.05 4528.49 5313.66 5419.37 4466.03 4511.54 5409.33 5070.39 5196.0 4923.9 4973.78 3329.99 3947.47 3296.27 4713.25 4204.84 6243.0 6673.96 3556.85 5441.96 3435.9 5174.89 4288.3 5370.52 4652.29 5774.81 3746.31 5027.98 5346.27 6475.1 4969.21 2691.29 6256.02 5314.85 4305.43 5450.44 4942.77 4263.33 5592.32 5912.61 5381.16 6193.35 6086.96 5233.78 5046.21 5683.26 5894.61 5139.5 5304.13 5944.09 4814.55 3527.05 4923.41 2477.07 4497.31 5384.76 5529.42 5257.12 5243.43 4537.14 5551.9 3757.34 6415.61 4687.64 4419.71 5037.06 3838.47 4541.8 5175.29 5412.31 3087.09 6934.37 4050.08 5452.42 5328.22 6853.85 2395.5 4512.11 5782.48 5683.61 3836.45 5100.25 6894.26 4986.51 5197.52 5178.99 5383.07 4591.87 5013.42 4247.15 6552.22 5651.07 6248.81 5273.35 5234.29 2651.49 4645.58 5512.23 5275.32 4898.94 4613.31 4733.04 6119.09 5788.66 5091.68 7531.29 5069.25 5048.89 3161.47 3991.03 6390.78 7435.25 6826.57 4788.87 4495.87 6022.72 5498.32 5527.33 5402.21 4989.09 2845.98 4880.14 5289.52 4982.31 3848.54 5941.4 5331.02 6510.17 5742.65 4863.23 4402.67 4470.61 5565.13 4384.88 6887.27 3701.27 5653.9 4806.34 4287.53 5612.21 4929.14 5945.08 3979.54 3306.14 5490.58 5833.06 4863.79 3830.46 6031.67 4689.15 6138.12 4428.78 5409.66 4345.67 4765.72 4642.66 4752.14 5329.59 4888.12 4950.97 5512.16 3197.63 5842.56 4863.96 5887.15 5203.08 7480.41 3423.15 4890.5 4488.85 3981.07 3731.84 4901.07 5186.3 3436.15 3497.9 4151.76 5941.61 4020.4 3493.47 4596.75 6248.6 5443.58 4558.46 5805.86 4470.4 5339.38 6169.11 5615.35 4027.09 4790.78 6422.84 4502.18 5379.09 4602.85 4962.77 5872.05 4853.02 4091.8 6259.23 5181.4 5670.2 5985.29 4711.62 4247.23 4178.15 4268.65 4694.83 5509.42 4354.08 4256.43 5936.36 4520.62 3903.75 4755.47 5935.03 4485.99 5127.16 5475.8 5314.69 4249.46 5965.81 3702.37 5660.85 4643.31 2330.66 4177.19 6917.52 3587.05 6229.37 6718.19 5282.91 4307.48 4425.84 7256.35 4800.69 4871.96 3555.86 6386.78 4631.83 4996.99 6081.14 6008.49 4220.46 5128.57 6000.7 3169.67 5604.21 4968.03 6710.88 5395.14 4702.06 3967.48 6213.04 3685.13 6790.73 4655.16 5251.4 3867.19 5857.79 4039.91 5276.7 5036.58 6119.63 5411.02 4752.9 4287.16 5199.44 5191.08 4435.51 5374.07 5163.77 4588.7 3766.55 4579.69 3554.48 6496.52 5005.85 4216.17 6484.17 4721.02 4254.37 3374.08 4933.65 4031.78 6098.1 5708.99 4049.02 5346.68 5311.03 5255.12 5296.29 4611.53 4285.66 4896.11 5172.53 5801.99 5210.48 7552.94 5323.3 5088.44 4998.21 4662.56 4114.24 5349.31 2976.22 4649.22 5394.55 5094.52 4946.74 2682.24 5928.32 5229.48 5475.7 4016.18 5526.75 5435.74 4244.99 6050.81 5327.45 5543.46 5560.26 6185.89 3997.96 4750.17 4439.35 3460.94 3990.25 3691.0 3758.07 4752.51 4236.14 4407.87 5282.51 4460.92 3797.33 5945.89 4042.28 4105.55 4340.76 6566.1 6065.22 4221.28 4456.39 4896.39 3633.79 5421.53 5480.83 5937.08 4607.85 6070.3 5233.29 4312.56 4612.06 5204.04 3361.92 4750.58 6667.68 5235.11 6622.11 5211.38 4590.55 5920.32 4255.85 5097.69 3988.3 6543.13 5149.72 5464.25 5486.48 5301.47 4617.55 5424.88 4062.5 5415.85 8659.64 5683.95 6027.62 5010.2 6123.03 5966.61 5711.11 4575.94 4938.72 3546.71 5768.57 5564.23 5950.04 5687.85 4231.83 2435.33 6401.43 5020.71 2681.29 5094.48 3872.61 4238.4 4135.62 4318.48 6132.95 5534.94 4860.33 7644.38 4051.34 6101.92 3627.55 6239.84 4635.6 4256.67 3457.48 5166.79 3931.07 3405.98 5417.15 3688.16 4681.72 4945.39 5996.33 3950.63 5415.19 4612.62 3619.07 4275.57 4467.04 6385.23 2983.99 2614.4 6363.92 6205.93 4923.24 5830.72 6184.4 3828.81 4373.45 4082.57 5733.62 5169.9 3004.16 4767.78 5235.17 4421.12 4779.5 5254.49 4303.19 5514.84 5784.3 3914.2 4256.57 6088.68 4135.08 5620.74 4778.82 6124.08 5467.84 5053.95 5926.11 5253.37 5767.9 5089.62 5869.4 4741.26 3701.16 4186.6 5895.77 4732.09 6136.49 4356.25 4216.95 5776.96 5742.74 4244.21 4947.24 3645.12 3875.05 6200.54 5148.58 4199.45 5469.13 4233.8 5765.42 4997.83 4893.49 5325.44 5021.88 5956.65 4498.25 4188.87 3735.24 6574.95 4074.48 4558.47 5997.88 5839.71 5576.92 6408.83 5266.22 3930.79 5226.97 3685.13 3312.06 6004.68 3361.26 6799.4 5278.36 5865.39 4427.28 6079.11 3082.32 6430.39 7440.72 3949.6 5703.6 6326.18 5661.62 6631.19 6648.68 4713.74 5626.61 5817.25 4084.49 5061.98 6632.99 4537.6 5147.36 4419.61 7177.44 4563.46 5309.98 6553.94 5255.18 5460.65 5652.0 5463.41 5225.33 4929.75 4435.36 6045.22 6649.96 5134.39 3532.3 5769.98 5442.32 2221.99 4643.56 4863.01 5356.79 5657.36 3619.79 5029.47 6306.21 5266.01 2978.76 2040.66 7016.27 6515.8 3876.21 3685.65 4916.22 6022.7 4940.84 5750.07 4809.67 4757.74 6045.67 4209.49 3946.28 3821.94 5439.9 5367.73 3540.11 3456.47 4652.01 5421.64 7234.66 6599.66 4055.54 4886.12 6419.12 4976.12 6098.95 5453.98 3991.42 4388.63 5102.75 4200.09 4597.29 5931.77 5151.21 6333.29 4477.04 5731.57 3886.68 5703.74 5662.55 5737.92 4360.23 5365.24 4004.35 5293.51 4763.96 5754.18 5180.76 3418.99 4480.95 4993.35 4409.63 5521.25 3661.9 5370.85 5949.46 3658.37 3178.54 4765.02 5376.71 4448.13 5070.29 4807.28 4867.08 4266.03 5280.69 4220.03 6923.84 5407.78 5449.46 6179.96 6113.54 4662.43 6260.79 3963.76 5528.53 6799.88 3062.43 5726.66 5426.78 2967.38 4159.35 6477.91 4237.98 6439.37 4614.3 5580.92 5973.33 5067.46 3583.21 2511.46 3580.58 4011.37 2775.69 4785.25 6519.43 5876.64 5424.46 4857.84 4908.49 4962.21 4858.44 5884.9 4673.35 5689.26 4992.42 5297.19 4351.38 4833.46 5933.7 7248.4 5280.12 5984.81 3498.16 4409.27 4640.06 5471.74 3548.39 3673.28 4858.51 4207.54 5625.65 4301.61 6107.89 4817.16 4446.84 5660.55 5148.08 4834.87 5760.22 3672.21 5938.17 4795.43 5398.64 5097.95 6817.57 4693.52 3614.96 6853.04 4745.43 5831.96 4747.55 3056.7 3755.95 6234.32 4586.19 4446.06 3450.93 5008.63 5132.68 6595.03 4558.15 6218.95 5222.16 5107.23 5136.08 3776.94 5558.68 4010.57 5629.39 2684.03 6157.04 4768.61 2261.36 5075.55 4522.21 5506.19 6719.94 4950.67 5227.59 6166.29 5453.6 5703.07 5294.77 4709.05 4630.82 4043.66 4813.08 5860.67 4540.86 5990.52 4835.83 5604.35 6316.56 4332.87 3091.67 6420.81 4081.97 4715.58 5401.99 5151.52 5369.08 4347.74 4009.62 5291.9 2081.58 6505.78 5461.55 6865.76 6449.64 6464.8 4684.44 4749.59 5799.69 3468.42 3809.69 5571.72 4771.13 3208.96 7051.9 4184.23 5550.75 6226.14 5466.33 4444.97 3000.29 5721.05 4247.69 4514.39 4588.99 4321.21 4344.34 4928.27 3583.49 5052.84 3375.28 4366.74 5297.16 3184.64 5206.33 5530.49 5653.03 3718.69 4514.79 2216.82 4509.89 6752.75 5269.38 5607.3 5108.06 3573.73 2928.82 4222.4 4000.43 3420.08 4568.41 4912.04 4539.07 5464.68 5591.76 4585.31 6625.18 5323.91 4270.74 5097.45 6293.89 2761.07 5737.75 4983.39 5366.52 4690.55 5533.72 5533.42 4802.32 3678.08 4599.38 5246.47 4187.31 6191.29 3240.51 7422.36 5161.01 4298.15 4628.4 5832.37 6051.83 4642.93 5409.63 4263.16 3973.12 3077.84 6024.75 6109.49 5567.93 5987.42 5332.65 3764.1 6451.33 5413.31 6400.08 4743.59 5208.14 3317.83 4450.7 3763.05 5092.24 5549.49 3101.75 4518.04 4766.06 4874.18 5435.19 3298.2 4270.15 4093.99 3940.49 4406.05 4680.94 5876.72 5236.43 5285.07 4608.41 4144.57 4187.94 5980.59 6834.41 3796.15 4801.8 7216.98 5271.02 4209.31 5718.28 6242.79 5950.45 5713.03 5849.65 5134.67 4165.21 4215.0 4936.96 4481.76 5452.78 5065.26 4304.41 6192.0 4940.28 5885.28 6579.31 3004.34 3022.6 4914.45 4811.76 4698.87 4661.03 3624.7 4691.91 5262.35 4475.83 2685.81 4510.8 5889.35 5010.04 4394.56 4570.98 4275.07 5825.38 4185.61 4047.87 5742.47 3778.02 6552.21 5417.8 5146.37 7132.12 4836.16 5518.57 5151.11 5463.48 5730.33 5545.46 4527.99 4376.7 5190.61 8325.01 3764.06 4440.81 5941.9 5434.47 6642.76 5829.22 4497.78 4243.79 5433.65 4442.22 4008.15 4887.76 4669.06 3012.99 4811.32 4286.49 6184.88 5829.32 4396.25 5551.95 3918.87 5423.42 2275.45 6605.86 5012.5 4383.56 3562.79 7093.13 4953.1 5818.95 4516.53 4122.92 3604.14 4452.54 5089.1 2711.19 5828.35 4028.32 4099.92 4884.59 3858.06 4680.14 4511.7 4083.79 5263.27 6300.92 5021.77 5599.29 6038.68 5046.12 4807.4 7013.17 3805.67 4601.74 6506.86 5088.57 5580.34 3852.6 5775.31 4706.5 4603.5 4647.67 5375.12 4356.36 4892.44 5578.94 7610.49 4286.17 3684.56 5323.55 5375.1 4172.6 5313.12 5351.56 5160.59 3984.88 4732.09 4320.42 4255.34 5064.79 5480.3 7509.24 4146.81 5896.26 5388.78 6101.13 4573.72 5099.21 4917.99 5636.4 4367.78 4350.12 5227.02 5670.0 4232.16 5300.96 4344.51 5680.94 3781.77 5581.55 5193.01 4543.1 3474.5 6550.44 3860.83 5732.27 4523.39 5278.56 5146.37 6917.62 4013.38 5631.14 4343.78 5811.18 5263.3 4909.65 6523.86 7693.4 4326.48 4437.07 3449.37 5491.9 6405.0 4659.16 5789.55 4633.05 4901.2 5711.62 4990.79 4798.17 5166.79 6479.39 2895.63 4997.91 5079.22 5381.54 5810.77 4714.83 5474.15 7519.2 6355.68 4478.6 3953.55 4304.63 4469.54 4314.56 4173.54 3928.53 5606.51 5740.65 3834.47 6349.67 4590.01 6101.86 4227.41 5993.0 4803.57 5966.42 4110.59 3332.49 5354.66 4214.44 5378.23 4787.97 3746.36 6789.23 3989.7 4777.03 4246.61 6028.09 5452.36 3804.5 6486.37 5498.42 5318.53 3344.57 5220.76 4281.98 7165.9 5344.83 7046.11 3427.63 4863.97 6342.48 5756.75 5599.7 4587.67 4163.74 6969.28 3665.95 5698.96 4095.75 3603.51 4298.45 5222.51 6609.84 5135.96 3834.43 5658.37 4707.06 6074.94 5491.37 4250.88 3783.54 6348.03 3475.67 4792.39 7038.89 3863.67 4814.12 5067.56 6137.8 2735.53 3352.35 5116.6 3747.03 2783.85 4356.49 4526.81 3994.07 4219.94 5907.46 4264.91 6740.71 5399.29 4909.31 5971.22 6522.59 6602.43 3568.28 5425.98 5996.66 4405.42 2995.67 3598.08 4599.81 5698.23 7300.58 3608.06 6633.61 5217.95 4867.7 5484.36 4277.24 4063.9 5291.05 5161.1 4619.2 5166.41 5067.56 6329.53 4139.3 6541.45 4750.49 5078.31 5391.48 4923.43 5131.15 4847.14 3950.27 5116.66 3566.79 5374.67 4981.43 4741.28 5069.89 4215.2 4157.29 6813.72 5327.75 4609.02 4896.65 4638.18 4196.37 6448.66 4453.97 6945.98 5138.2 5783.48 4449.98 4701.5 4504.35 4771.65 4840.44 5093.82 5951.81 3924.14 4296.69 6238.32 3319.67 6471.42 5283.8 4076.59 4428.14 5164.1 6464.15 4479.11 4972.17 6685.4 5699.53 4222.77 6332.01 5268.38 5527.23 4805.33 7085.01 5980.95 6193.08 6069.3 5887.01 5168.35 5388.39 5335.47 5633.61 5048.19 6799.23 4888.27 6487.56 4854.11 5533.19 5417.21 5583.61 6063.64 7382.3 4022.56 5522.21 3772.3 4855.01 4923.57 3340.09 6061.63 2279.05 4829.35 4075.28 8137.11 5484.32 6650.77 4067.96 7104.73 2596.96 6162.3 5701.75 3272.75 4350.15 4264.54 3516.27 4263.78 4643.9 5228.75 6047.14 5009.83 5210.38 5717.8 3629.44 5003.78 3299.24 6246.56 4061.6 2603.64 5107.0 6212.15 6502.97 4783.07 4946.23 4852.58 6083.28 5211.6 3556.79 5806.31 5456.71 3503.41 7317.04 7001.83 5012.97 5589.37 5439.49 6918.35 4834.3 6804.79 5642.35 6372.13 5369.5 5404.01 6016.19 4124.49 3230.13 5714.25 5325.96 4850.06 5016.02 7044.29 4920.21 4234.18 4049.16 3936.95 6153.94 6836.82 3862.77 4631.99 4740.98 3185.39 5128.77 3728.18 7122.87 5797.36 4243.26 4153.84 5119.86 4592.15 5084.17 4901.44 3776.8 4998.22 5096.43 6156.21 2460.79 6104.26 4653.83 6171.71 4986.71 4668.88 5027.43 5522.75 5867.64 6208.9 6059.93 5602.53 6545.43 6760.92 4989.2 4711.04 7144.05 4506.18 4824.12 4383.47 5971.21 7043.44 6412.67 4036.91 6639.64 5212.43 5454.12 6348.54 4066.57 4206.98 5156.76 6357.47 6101.57 4891.38 5535.91 2949.12 5955.86 6176.67 4533.37 4848.46 5412.24 2779.99 5887.38 4581.37 6942.34 5851.61 5478.11 5526.31 3858.17 5030.15 5089.26 3628.89 6589.82 4438.58 5073.02 3472.91 2970.9 6542.5 6318.23 4058.87 5174.75 5932.07 4984.46 5948.71 