# vtk DataFile Version 2.0
Time step 55
ASCII
DATASET UNSTRUCTURED_GRID
POINTS 5000 float
12439.0 58011.3 0
16747.6 57329.2 0
27669.2 55712.2 0
57004.9 57982.3 0
171830.0 57252.4 0
177734.0 57290.7 0
182938.0 56477.0 0
201747.0 58016.2 0
212984.0 58115.9 0
241170.0 58017.8 0
252680.0 58003.1 0
278881.0 57421.9 0
297319.0 57386.5 0
361815.0 57789.2 0
372012.0 55806.8 0
377031.0 57778.5 0
388132.0 57953.5 0
394019.0 57269.4 0
403650.0 56195.2 0
408587.0 57407.4 0
422737.0 57214.8 0
432478.0 56726.7 0
442088.0 58021.9 0
446251.0 57602.7 0
471628.0 57799.7 0
477063.0 56603.2 0
485844.0 56535.5 0
491674.0 58074.1 0
497601.0 56567.6 0
2398.29 58803.8 0
8534.08 58177.2 0
6062.52 61497.2 0
11087.3 62529.3 0
17332.6 63231.4 0
22243.6 58977.2 0
28519.6 62063.9 0
33205.0 58399.6 0
38185.3 58983.5 0
42703.9 59136.8 0
47472.2 59043.0 0
48279.9 63037.4 0
52137.1 59142.7 0
62763.5 59058.0 0
67994.7 59191.5 0
72702.5 58323.9 0
77500.0 59071.0 0
82500.0 59060.2 0
87407.7 58358.4 0
87907.8 63116.3 0
92500.0 59098.4 0
97192.5 59119.9 0
101292.0 59036.9 0
105946.0 58426.4 0
111936.0 58905.7 0
108243.0 63017.6 0
117850.0 59090.8 0
123330.0 59167.5 0
128345.0 59288.4 0
133428.0 58537.0 0
138124.0 59220.5 0
142500.0 59141.7 0
147500.0 59075.2 0
152501.0 59045.0 0
157589.0 58672.5 0
156860.0 62721.7 0
162561.0 58827.8 0
167010.0 58369.4 0
166509.0 63041.2 0
172971.0 62821.4 0
178375.0 62703.0 0
183533.0 61545.0 0
187393.0 58331.7 0
188604.0 62777.3 0
192498.0 59493.5 0
196079.0 58655.9 0
198250.0 63000.6 0
207650.0 58780.4 0
213692.0 62666.2 0
218128.0 59201.9 0
222479.0 59214.3 0
225794.0 58443.4 0
226801.0 62678.4 0
230434.0 58315.4 0
235810.0 59313.4 0
246502.0 60019.1 0
259052.0 58477.7 0
257263.0 63116.2 0
263773.0 59566.3 0
268740.0 58475.1 0
273935.0 58770.4 0
271610.0 62621.2 0
277075.0 63024.9 0
282030.0 60754.4 0
286325.0 59062.0 0
291717.0 59518.0 0
298250.0 62896.9 0
303664.0 58170.6 0
307730.0 60741.0 0
312126.0 58595.6 0
317929.0 59212.3 0
323245.0 59117.8 0
327581.0 59388.9 0
332206.0 58987.5 0
337223.0 58696.6 0
341019.0 59907.5 0
345896.0 58242.5 0
343308.0 62932.7 0
350686.0 60165.7 0
355258.0 59148.7 0
361440.0 63101.9 0
365113.0 62793.9 0
367954.0 59122.3 0
372930.0 62607.6 0
382609.0 58652.7 0
378819.0 62329.3 0
388375.0 63041.8 0
399200.0 58938.0 0
402999.0 62394.7 0
412474.0 59058.0 0
408388.0 61688.2 0
412865.0 63000.1 0
417500.0 59104.0 0
422128.0 61851.5 0
427271.0 58923.4 0
433429.0 61959.8 0
437541.0 59080.3 0
443214.0 62304.1 0
447602.0 61612.7 0
450665.0 58370.4 0
451946.0 62847.9 0
455208.0 58310.1 0
457176.0 63037.0 0
460242.0 58153.7 0
465793.0 58543.2 0
466599.0 63112.9 0
475181.0 63092.7 0
481305.0 59466.4 0
486589.0 62724.6 0
496837.0 62076.8 0
2284.55 63818.1 0
6738.9 66542.4 0
23005.6 64487.2 0
34969.3 63674.2 0
40341.9 63992.7 0
44464.7 64334.4 0
47589.1 67758.5 0
52500.0 64102.9 0
57995.3 63423.5 0
62850.0 64157.5 0
67505.2 63829.3 0
72115.8 63443.6 0
77500.0 64229.0 0
82116.1 63875.2 0
92500.0 64238.0 0
97183.4 63866.7 0
102467.0 63771.5 0
107924.0 67797.5 0
112500.0 64174.3 0
117500.0 64255.8 0
122500.0 64178.7 0
125864.0 68089.4 0
127727.0 63721.4 0
132494.0 64072.2 0
137520.0 64087.0 0
142774.0 63564.3 0
140992.0 67685.1 0
146926.0 63912.3 0
151937.0 63789.8 0
156244.0 67282.4 0
161296.0 63541.9 0
169996.0 67607.8 0
182187.0 66684.0 0
193571.0 63637.7 0
203920.0 63636.0 0
199972.0 68105.6 0
209357.0 63850.3 0
213300.0 67477.0 0
217601.0 64272.6 0
222032.0 64038.7 0
222564.0 68313.0 0
226872.0 67683.3 0
232205.0 63740.3 0
237686.0 64564.7 0
243283.0 64388.9 0
248462.0 64092.6 0
246841.0 68160.7 0
252678.0 64563.3 0
257738.0 67868.3 0
262325.0 63741.8 0
267061.0 63318.0 0
267489.0 67772.5 0
273047.0 67861.2 0
279878.0 67088.3 0
282828.0 64441.0 0
287500.0 64152.4 0
292913.0 64009.1 0
291016.0 68315.4 0
296734.0 67940.4 0
303119.0 63841.1 0
307441.0 64033.9 0
312501.0 64346.9 0
317474.0 64087.5 0
322433.0 63585.8 0
322509.0 67591.1 0
327500.0 64132.6 0
332500.0 64204.9 0
336512.0 68202.5 0
337713.0 63538.0 0
341414.0 67138.1 0
346846.0 67715.3 0
347752.0 63328.7 0
352668.0 64055.5 0
356026.0 67443.0 0
357754.0 63568.9 0
361261.0 67803.9 0
366513.0 66874.9 0
382004.0 63467.6 0
377673.0 68264.2 0
384354.0 66805.2 0
392424.0 68239.2 0
393554.0 63416.5 0
397217.0 68198.9 0
398136.0 63851.3 0
409244.0 67333.1 0
417520.0 63619.7 0
419145.0 68308.9 0
428327.0 63865.7 0
424121.0 66668.7 0
432249.0 67583.1 0
437510.0 64148.7 0
437342.0 68320.1 0
442359.0 67541.1 0
448276.0 66685.6 0
454179.0 68252.0 0
462429.0 64527.2 0
470193.0 64293.2 0
472372.0 67615.2 0
480797.0 64741.4 0
492077.0 64975.0 0
2238.62 69742.0 0
8050.23 72382.9 0
11843.3 68358.6 0
13471.9 72985.5 0
16323.4 68438.6 0
17752.4 72283.0 0
20502.9 68448.5 0
22417.4 72822.1 0
27043.9 68896.5 0
32616.0 68729.9 0
32073.0 73017.3 0
38263.9 68505.4 0
42970.8 68892.5 0
49063.6 72549.8 0
51800.6 69523.5 0
56554.7 69043.7 0
62115.2 69013.4 0
63617.0 73345.0 0
67697.9 68673.2 0
73695.3 68986.3 0
78211.1 69426.5 0
77068.8 73345.7 0
81954.5 68601.3 0
86960.3 68632.1 0
92531.5 68989.0 0
97548.4 68386.0 0
102630.0 69533.5 0
107685.0 73295.6 0
116732.0 68858.9 0
112494.0 69071.1 0
113113.0 73400.3 0
120857.0 68709.1 0
118139.0 73335.0 0
123420.0 72696.7 0
131158.0 69788.2 0
136445.0 69740.6 0
146305.0 68803.5 0
151834.0 70401.3 0
148002.0 73411.7 0
156828.0 72676.3 0
161703.0 69232.5 0
166528.0 71050.9 0
176294.0 68460.7 0
182233.0 72162.6 0
188048.0 68938.9 0
194261.0 68663.8 0
197223.0 73391.0 0
203055.0 73244.9 0
208111.0 68758.8 0
204288.0 69100.8 0
217709.0 69206.3 0
214360.0 73147.9 0
222020.0 72570.6 0
227505.0 73233.6 0
232444.0 69205.1 0
237422.0 68990.7 0
237875.0 72314.7 0
241792.0 69644.0 0
246210.0 73345.9 0
251784.0 69454.4 0
255872.0 72583.6 0
262720.0 68519.4 0
260336.0 72253.1 0
266349.0 72454.6 0
278361.0 72591.2 0
283554.0 69373.8 0
287215.0 69441.5 0
288758.0 72594.9 0
302234.0 69075.9 0
307700.0 68463.7 0
313207.0 69588.9 0
316257.0 73291.8 0
318188.0 68577.5 0
321079.0 72815.9 0
326812.0 69472.5 0
329893.0 73014.5 0
331856.0 69188.0 0
339780.0 72528.9 0
351893.0 68890.5 0
357349.0 71400.4 0
366550.0 71567.5 0
371101.0 68748.2 0
382813.0 72321.2 0
388338.0 69993.4 0
402858.0 68635.7 0
408059.0 72681.9 0
414413.0 69887.4 0
427686.0 69704.9 0
425659.0 73332.2 0
437115.0 72514.9 0
441811.0 73126.8 0
446524.0 71682.4 0
450848.0 72179.4 0
458992.0 69301.7 0
463188.0 69064.7 0
467519.0 69171.3 0
472593.0 72574.6 0
477746.0 68563.2 0
482622.0 69436.2 0
487506.0 70539.3 0
491506.0 69036.3 0
492124.0 72891.7 0
496591.0 68645.5 0
2182.12 74156.1 0
11905.7 76725.7 0
17161.8 77462.2 0
23053.4 78206.2 0
26989.1 74819.4 0
30224.5 77556.9 0
34875.2 78351.1 0
37589.6 73710.1 0
39764.5 77774.2 0
43206.2 73955.6 0
48583.3 77774.2 0
53807.2 74224.2 0
59223.1 73722.6 0
57213.6 78114.8 0
63064.6 78120.0 0
68064.9 74345.1 0
72603.0 73861.9 0
73401.6 77920.1 0
78302.6 78494.1 0
82136.1 73622.3 0
87334.0 73805.8 0
92269.2 74319.6 0
97732.1 73738.2 0
102767.0 74989.9 0
111306.0 77984.2 0
122098.0 77886.8 0
127500.0 74253.1 0
126931.0 78294.7 0
137738.0 73654.5 0
132691.0 74616.2 0
136577.0 78204.6 0
142524.0 73803.9 0
147012.0 77688.9 0
153420.0 75054.6 0
160406.0 74045.5 0
164429.0 74754.3 0
167047.0 77628.8 0
170842.0 73636.8 0
177032.0 75028.6 0
186625.0 74573.2 0
191646.0 74060.1 0
193693.0 78145.8 0
203174.0 78345.7 0
208748.0 75105.0 0
218717.0 74455.3 0
216320.0 77764.9 0
221175.0 78104.6 0
234333.0 73584.4 0
231983.0 78082.9 0
237943.0 77050.6 0
241749.0 74244.5 0
248029.0 78424.0 0
251518.0 74712.8 0
257727.0 77765.7 0
262636.0 75827.6 0
267587.0 78406.6 0
271756.0 74130.0 0
284358.0 74112.8 0
288835.0 77915.4 0
292983.0 74310.6 0
298941.0 74240.3 0
303985.0 74472.7 0
307500.0 74296.6 0
312166.0 74115.4 0
316965.0 77728.6 0
325851.0 74405.3 0
322295.0 78411.4 0
330937.0 78529.4 0
334356.0 75011.7 0
341522.0 78022.7 0
346088.0 73969.9 0
352844.0 74466.1 0
361674.0 73791.6 0
357892.0 77978.8 0
367104.0 76474.8 0
371934.0 74382.2 0
377880.0 75715.6 0
387369.0 74178.8 0
383272.0 78332.6 0
388210.0 78359.3 0
393045.0 74911.3 0
399508.0 73805.4 0
403054.0 77808.0 0
404321.0 73832.3 0
408162.0 77532.0 0
412346.0 74351.0 0
416948.0 73691.1 0
414685.0 77999.0 0
421365.0 74936.9 0
427477.0 77781.5 0
431067.0 73775.0 0
436128.0 77499.6 0
448332.0 77193.5 0
455406.0 74024.7 0
461200.0 73713.7 0
466975.0 73497.2 0
473889.0 77791.0 0
478847.0 74062.4 0
484704.0 74577.3 0
489148.0 75301.4 0
496754.0 75287.9 0
1482.51 78830.4 0
2749.68 82868.5 0
7155.4 78690.7 0
12671.5 81230.8 0
18088.6 83232.5 0
28648.7 81603.2 0
39135.7 82615.2 0
43683.6 79608.1 0
53135.3 80225.6 0
59720.7 83126.1 0
68310.1 79520.6 0
72212.2 81798.7 0
76319.1 83389.4 0
83594.0 78563.0 0
88398.3 78623.1 0
92509.0 79161.7 0
97237.0 79153.7 0
101195.0 79219.3 0
105585.0 78811.8 0
111043.0 82833.6 0
116640.0 78593.2 0
115385.0 83309.5 0
127441.0 83559.0 0
131218.0 78996.8 0
133301.0 83449.8 0
142212.0 79497.4 0
151801.0 79621.2 0
157942.0 78614.3 0
161442.0 83089.4 0
163657.0 79239.7 0
166774.0 82980.7 0
171003.0 79644.9 0
176727.0 81319.9 0
182933.0 79082.6 0
189204.0 78978.7 0
192411.0 83486.2 0
198249.0 79278.4 0
202629.0 82921.7 0
207321.0 80485.5 0
212115.0 79356.7 0
226331.0 79871.6 0
236016.0 82033.4 0
242843.0 78901.2 0
252897.0 78740.9 0
250904.0 82891.0 0
262829.0 81406.7 0
272697.0 80015.0 0
278480.0 79245.6 0
283573.0 78699.5 0
282084.0 82629.8 0
293487.0 78908.5 0
293046.0 83328.0 0
297506.0 80285.9 0
302639.0 78778.0 0
301871.0 82704.9 0
307114.0 79138.0 0
311941.0 78856.6 0
316864.0 82853.8 0
327150.0 79275.8 0
333887.0 82758.4 0
337123.0 78908.2 0
346657.0 79937.4 0
351577.0 80116.6 0
355549.0 82241.9 0
360516.0 83507.4 0
362982.0 78765.9 0
366513.0 83617.6 0
370163.0 79923.5 0
374540.0 79937.7 0
378545.0 83287.8 0
383421.0 82470.9 0
387240.0 82830.0 0
392170.0 81157.8 0
397892.0 79742.6 0
405311.0 83048.6 0
411971.0 82116.3 0
417929.0 79252.0 0
422500.0 79797.6 0
427295.0 82035.0 0
431264.0 79203.7 0
437085.0 82831.2 0
441997.0 78787.1 0
447111.0 83358.3 0
454028.0 79185.6 0
[...]
POINT_DATA 5000
SCALARS Radius float 1
LOOKUP_TABLE default
3471.03 5253.55 5782.6 5379.87 6044.04 5415.48 5120.0 6182.6 5258.36 5906.14 7513.1 5580.89 6810.52 7613.27 5529.52 5255.32 5096.78 6756.95 6324.23 3843.58 4270.53 5191.63 4150.99 4216.92 6268.1 4861.06 5320.28 6739.08 4797.52 4796.58 3979.26 4298.67 5960.66 6608.73 5820.48 7034.11 4862.21 5113.21 3929.19 4107.03 4043.57 4478.15 5925.6 4501.51 4792.73 4736.58 4931.38 3485.26 6082.81 4329.05 4151.94 4049.23 5337.48 6124.89 4929.8 5708.81 5252.48 4780.03 5495.39 3996.0 3856.1 4665.12 3383.4 4133.88 4094.62 4834.9 3850.77 5546.39 5325.36 5484.83 5085.53 3863.18 5351.6 2356.98 4998.37 4715.55 5492.18 3951.75 5061.3 3642.12 3163.97 5542.27 5812.43 5122.66 5484.19 5254.28 4688.68 4436.4 5733.48 4672.91 4182.53 5903.42 3588.44 5645.7 5176.86 4366.19 5840.26 3672.51 6110.27 5561.06 5073.35 3615.22 5670.04 4380.59 3589.27 6716.79 3997.1 3607.45 5759.91 3038.33 4333.2 4951.03 7199.21 6037.08 4523.7 5091.39 4129.43 6142.94 3320.52 4727.24 4602.25 4194.5 5082.47 5344.25 5445.87 4593.7 4704.72 4177.94 4742.68 4571.7 4344.58 5896.46 5634.83 5495.84 3784.5 6481.79 5374.51 7042.12 6326.39 4569.12 5873.69 5011.84 6261.42 4502.5 3771.48 5499.11 4271.69 5681.38 4138.42 3708.04 5513.6 3240.09 4556.36 3191.99 4685.34 5601.05 4651.28 3586.91 3103.0 3554.9 5481.78 4015.92 5542.21 4487.31 3936.02 5043.05 4044.71 5980.74 5109.54 4927.02 5945.65 5538.89 4730.36 5867.73 6059.59 5013.56 5701.86 4499.64 4375.68 4238.81 4468.59 5054.98 6030.06 5170.02 3557.27 5200.76 4927.31 4862.64 4402.52 4517.56 4432.58 6684.56 3968.64 3955.56 3761.32 4118.05 5292.64 6166.5 5553.16 2938.66 4940.78 4231.61 4008.92 4003.05 3942.53 3379.84 4805.87 4827.82 5227.21 5697.78 3260.67 5123.52 4091.31 4392.68 6372.62 4295.38 2240.39 7565.34 5923.5 4612.68 5293.9 4973.83 3912.37 6691.39 4790.08 5135.69 4763.45 5344.0 6045.46 3815.26 4245.72 5908.1 6048.7 6133.92 5022.8 3780.23 4166.08 5224.12 4819.73 4471.58 6098.14 4962.09 4472.17 3999.48 4203.26 4359.62 5188.81 6946.21 2586.12 6057.22 5433.8 4011.77 4527.08 3633.87 5922.5 5198.77 3970.25 5987.17 6013.14 2765.2 5011.31 4901.41 5110.37 5664.98 4382.74 5927.43 6355.42 3693.63 4384.42 4362.19 4516.43 5690.56 4948.92 5637.59 4937.14 5816.2 5693.81 4002.16 4174.52 6483.19 3829.13 6759.9 5418.62 7021.47 5416.38 5740.68 5926.61 4955.55 2720.68 3563.63 5836.15 4345.55 6704.06 5885.03 2837.58 3871.88 5325.02 5246.2 5017.13 5279.39 5185.34 3673.74 5205.43 7447.37 4688.67 2635.86 4385.06 5065.13 5936.02 5305.17 4290.3 4861.08 5399.73 5390.22 3888.21 4712.33 6038.78 4667.36 4254.17 5090.24 5615.42 5530.87 4281.49 6342.25 4187.56 4840.84 4020.32 4290.14 4156.38 5316.75 4541.21 4164.68 3719.84 4178.4 3095.48 5762.59 4123.6 4850.14 5163.55 3382.7 3954.91 6817.32 4319.79 3637.61 6222.42 5654.31 4730.41 3745.84 5690.26 5062.71 4156.2 6125.34 5965.78 5347.48 4850.01 4810.12 5643.58 5147.67 3979.82 4292.06 5577.04 5138.31 5264.06 4659.59 6327.9 4048.37 5492.26 5762.84 3115.91 3937.74 3307.12 4493.48 6084.86 5924.89 4778.34 4138.16 3486.22 4684.5 3091.3 6230.49 6458.82 4601.27 5493.32 3641.64 4277.89 6051.14 3261.21 4195.44 5539.32 3653.41 6496.85 5600.93 3856.01 5541.59 4390.66 5728.85 4827.23 4911.47 6116.18 4924.6 6257.19 4733.32 7184.19 2899.43 2924.37 3867.67 4695.45 4660.72 6052.7 3921.18 5891.05 5308.1 6902.81 6644.76 5629.19 5655.21 4786.6 5740.84 6445.94 4310.18 5542.14 4218.06 7134.64 5978.9 4716.19 3629.62 5514.76 4997.27 4301.06 3456.98 4877.67 3066.13 6562.18 6006.16 7055.53 5669.65 5934.22 5624.49 4970.88 7092.87 4666.81 3703.1 6471.55 2965.01 5499.39 6643.85 5501.93 5463.38 4938.74 5607.14 4497.59 4374.35 6396.74 5215.05 3821.72 4986.77 5006.58 4602.86 3688.8 4548.16 3369.23 5449.18 4220.88 5244.78 4515.71 6640.13 4749.8 5082.6 5478.92 5551.36 6894.71 4467.94 4414.54 4850.81 5789.98 6138.47 7054.71 5489.43 5573.7 5747.75 4727.62 5054.25 4796.33 5360.19 4794.96 4874.39 4124.71 5083.08 6337.56 5803.39 5863.59 4381.97 4024.3 3255.82 5555.28 5242.73 2812.98 4737.14 4065.69 5603.15 5556.96 3798.62 6392.01 3666.57 4907.89 4937.02 4073.93 6043.3 4645.41 5952.75 4433.59 4320.28 6122.55 2739.94 4931.53 5480.13 6308.71 6695.82 6405.76 3498.2 5105.16 5448.61 4302.5 4827.33 6009.88 5513.57 5013.67 5826.04 5339.78 4538.95 4143.78 4763.66 4636.5 4940.42 5923.4 5085.71 6116.33 5644.82 6343.14 5945.21 5750.71 5696.88 4831.47 3923.03 4643.85 5975.63 4004.04 5252.34 4138.46 4274.61 2775.04 2965.79 6898.19 6035.6 6318.18 5586.81 4481.53 4621.75 3948.17 5330.45 4551.24 4581.13 5358.59 3610.4 6387.01 5367.52 6519.71 5210.03 5810.84 4230.54 5351.39 5094.44 3748.24 4655.49 4933.21 5375.47 6038.14 2540.31 6029.66 5527.54 5697.4 6038.2 4270.95 4055.8 5206.78 7325.81 5280.17 6425.26 5143.58 6186.19 4839.34 2980.99 6834.49 7933.0 5525.39 4455.12 3998.5 5938.34 5380.13 6394.38 5118.27 5169.36 5932.23 4686.65 5834.74 4479.66 5788.23 3043.85 5581.75 3599.45 6730.19 4907.06 3735.44 5163.9 6332.36 6155.31 4223.33 5911.67 3323.28 5835.78 5794.24 4127.74 2476.04 4678.38 3942.07 7443.72 5050.65 3937.08 5260.34 5206.48 5729.23 5226.0 3365.82 5724.64 5965.15 4780.2 6090.91 4946.42 5019.93 5081.78 6263.44 5774.97 5462.21 5470.77 6062.05 4289.17 5564.02 6072.45 4410.55 5137.34 5423.0 3856.59 4219.07 5413.79 6202.55 3092.35 4322.15 4714.54 3629.96 5478.47 3320.11 6142.37 6061.47 6163.38 4566.18 4723.12 5120.49 5201.36 5262.61 6302.8 5409.61 5094.81 4005.44 5713.22 5555.88 6732.43 5028.96 3866.16 6362.12 4484.76 3778.1 4840.01 5152.36 4511.82 5611.2 5173.87 4894.16 5711.87 3372.79 4941.22 5791.61 3369.13 4669.66 4808.52 5367.2 5607.24 5461.13 4726.76 5839.13 5495.68 5489.34 5002.48 5708.14 5537.72 3920.42 8332.24 4553.56 5329.64 6049.55 5709.62 5991.09 5133.97 6600.94 5371.02 6155.1 4709.35 6586.45 4373.3 4750.78 5029.78 4163.5 4888.6 5078.86 5100.1 3561.29 4963.34 4219.78 3295.83 3885.86 4459.28 4260.92 6250.23 5960.56 4118.84 4020.95 6313.06 3474.39 3493.7 6470.3 4200.03 6939.12 5082.74 6915.83 5092.37 6444.77 7099.43 5526.14 4287.63 5198.29 5077.33 4746.52 3689.45 5572.95 6338.89 5584.06 5025.39 7111.16 5893.5 4547.19 5030.91 6022.17 5119.37 3982.23 4583.31 3459.9 4853.39 4997.27 4964.09 4093.08 4809.42 5024.9 4306.53 5659.17 5972.06 4312.67 5861.71 4359.04 3183.98 3794.63 5017.78 4524.28 6175.81 4727.24 6677.09 5826.64 4220.65 6820.42 4816.2 6321.41 4896.52 4089.76 4751.02 3192.41 5184.56 5282.64 4715.72 5804.71 5046.33 4764.96 4242.52 5053.92 6352.26 3847.38 3818.59 4863.72 4143.08 7500.97 6623.85 4262.82 5228.18 5102.36 4342.9 5065.11 5069.84 4051.44 4241.89 5054.74 5941.72 4656.78 5126.91 4788.58 5131.24 5196.67 5876.71 6262.72 3664.11 6515.84 2990.77 4739.14 4918.77 5187.7 4371.99 4188.3 5235.29 4479.94 4255.31 5453.3 6413.02 4863.27 5862.86 6049.79 5374.98 4719.7 4735.33 5411.85 4844.57 4027.46 6314.07 5315.4 6449.45 3975.31 4044.45 3824.16 5125.78 3868.18 4373.47 6723.16 5372.61 3686.21 3817.13 5507.24 5023.15 6851.54 4503.89 5806.08 5243.29 4449.22 5543.27 4717.05 5287.2 6135.57 5998.38 5013.13 5423.8 4270.24 4989.15 4164.13 5015.69 4947.52 4305.57 6959.81 4829.35 5201.67 3791.79 4424.7 4754.05 5526.55 6084.93 5215.15 4987.87 3315.57 4739.42 5020.12 5727.3 2631.9 5281.28 5356.51 4277.88 4087.15 3057.03 4758.21 7228.46 3948.23 5978.82 5787.31 3927.99 5868.82 4978.31 4050.9 4948.98 4099.77 4414.48 4537.32 4981.9 3600.43 4906.82 5687.83 5004.23 6496.67 5474.8 6607.87 5117.47 4721.32 4925.63 3293.56 5882.65 4434.19 4623.61 5511.6 6261.75 5177.64 6134.99 4094.73 4407.9 3492.19 4584.5 4440.57 5122.63 4703.08 2315.64 6345.13 5274.19 5516.95 4406.4 5313.22 4413.85 3999.94 4470.98 4864.22 5776.37 4516.28 3921.08 4190.31 3627.82 5678.96 5262.19 4244.9 5344.43 6070.58 5045.38 5350.88 5402.24 6480.17 4377.07 3844.9 3813.22 5101.59 3963.86 5570.3 3848.93 4336.42 4306.11 5935.47 7589.94 3130.65 5628.24 5856.11 3327.49 5992.26 4109.88 4234.94 3960.8 4562.29 4980.85 5080.66 3417.33 5110.45 4926.42 5248.77 4642.34 4083.97 4520.1 5153.74 5874.89 4293.03 5813.4 4389.21 4128.98 4925.44 6246.22 4951.47 5246.61 4307.28 3697.96 4723.48 5538.93 4899.11 4745.45 7267.18 6255.18 4668.71 5269.18 6362.14 6719.88 4454.63 5266.5 4523.88 3279.1 4066.38 4403.98 4560.84 5227.52 4729.43 4092.24 5163.02 4562.74 7144.24 5598.74 7493.3 6442.69 6320.71 4648.04 3464.83 6413.11 4305.16 3163.78 5092.28 5274.14 4903.82 5746.28 4152.85 4082.47 4453.64 4338.08 4517.73 4378.3 5469.47 4989.56 4718.54 6736.03 5548.29 6766.43 5916.16 4390.41 5226.56 5599.49 4097.57 3905.51 5017.5 5563.79 3901.8 6171.13 5759.46 5083.41 7055.42 6048.86 4285.32 5490.43 6034.41 5452.83 5130.91 4959.34 4948.5 4519.22 4527.02 6445.22 3695.36 4564.34 4871.44 5076.35 6020.48 3402.32 5200.05 5903.66 4528.49 5004.67 5365.89 5419.37 4466.03 4511.54 5070.39 4923.9 5714.58 3329.99 5208.32 3296.27 4713.25 4607.02 4204.84 6243.0 4528.09 3895.51 4165.81 3556.85 5441.96 6291.51 3435.9 5174.89 5882.89 5370.52 4188.32 4652.29 5774.81 4100.38 3746.31 5344.77 5027.98 5097.87 4278.07 6475.1 4969.21 2691.29 6256.02 5320.92 4305.43 4406.1 5450.44 5034.59 4942.77 4263.33 5080.18 5912.61 5381.16 6193.35 6086.96 5233.78 5776.57 5046.21 5683.26 5894.61 5139.5 5944.09 4814.55 3527.05 5698.77 2477.07 4497.31 5529.42 5257.12 4965.89 5659.95 5551.9 2908.7 6415.61 4687.64 4419.71 5660.16 3838.47 4541.8 2588.37 6235.57 3623.87 5412.31 3087.09 6934.37 6113.95 4050.08 5452.42 5328.22 2395.5 5511.88 4512.11 5486.68 5683.61 5100.25 5022.28 5197.52 5178.99 5383.07 4531.14 4591.87 5013.42 3838.56 6552.22 5651.07 6248.81 6375.99 5273.35 5234.29 5313.66 2651.49 5512.23 5275.32 5409.33 4898.94 5196.0 4613.31 4973.78 4733.04 3947.47 5091.68 7531.29 5069.25 5048.89 6673.96 3161.47 3991.03 6390.78 7435.25 4288.3 6826.57 4788.87 4495.87 6022.72 5498.32 5527.33 5346.27 4989.09 2845.98 4880.14 5289.52 5314.85 3848.54 5941.4 6510.17 5742.65 5592.32 4402.67 4470.61 5565.13 4384.88 3701.27 5653.9 4806.34 5612.21 4929.14 3979.54 5304.13 3306.14 5490.58 5833.06 4863.79 4923.41 3830.46 6031.67 5384.76 6138.12 4428.78 5243.43 4537.14 4345.67 4765.72 3757.34 4642.66 4752.14 5329.59 4888.12 5037.06 5512.16 5175.29 3197.63 5842.56 5887.15 7480.41 3423.15 4890.5 3981.07 3731.84 4901.07 5186.3 6853.85 3497.9 4151.76 5941.61 4020.4 5782.48 3493.47 6248.6 3836.45 5443.58 4558.46 5805.86 6894.26 4470.4 4986.51 5339.38 6169.11 5615.35 4790.78 6422.84 4247.15 4502.18 5379.09 4602.85 5872.05 4853.02 4091.8 4645.58 5181.4 5670.2 5985.29 4247.23 4178.15 4694.83 5509.42 6119.09 4354.08 5788.66 5936.36 3903.75 4755.47 5935.03 5475.8 5314.69 4249.46 5965.81 3702.37 5660.85 4643.31 2330.66 4177.19 6917.52 5402.21 3587.05 6718.19 4982.31 4307.48 4425.84 7256.35 5331.02 4871.96 4863.23 3555.86 4631.83 4996.99 6887.27 6008.49 4220.46 4287.53 5945.08 3169.67 4968.03 5395.14 4702.06 3967.48 6213.04 4689.15 3685.13 4655.16 5409.66 3867.19 5857.79 4039.91 5276.7 5036.58 6119.63 4950.97 4752.9 4287.16 4863.96 5191.08 5203.08 5374.07 5163.77 4588.7 4488.85 3766.55 4579.69 3554.48 6496.52 3436.15 5005.85 4216.17 6484.17 4721.02 4596.75 4933.65 4031.78 6098.1 5708.99 4049.02 5346.68 5311.03 5255.12 4896.11 4285.66 4027.09 5172.53 5801.99 5210.48 4962.77 7552.94 6259.23 5088.44 4998.21 4711.62 4114.24 4268.65 5349.31 4649.22 5394.55 5094.52 4256.43 4946.74 2682.24 4520.62 5928.32 5229.48 5475.7 4485.99 4016.18 5127.16 5435.74 4244.99 6050.81 5543.46 6185.89 3997.96 4750.17 3460.94 3990.25 3691.0 4752.51 6229.37 4236.14 4407.87 5282.91 3797.33 5945.89 4105.55 4800.69 6566.1 6065.22 6386.78 4456.39 4896.39 3633.79 6081.14 5480.83 4607.85 6070.3 5128.57 6000.7 5604.21 5204.04 3361.92 4750.58 6710.88 5235.11 6622.11 4590.55 6790.73 5920.32 5251.4 5097.69 3988.3 6543.13 5149.72 5464.25 5411.02 5301.47 4617.55 5199.44 4062.5 4435.51 5683.95 6027.62 5010.2 5966.61 5711.11 4938.72 4254.37 3374.08 3546.71 5768.57 5950.04 5687.85 5296.29 4611.53 2681.29 5094.48 3872.61 4238.4 4135.62 6132.95 5534.94 4860.33 7644.38 4051.34 6101.92 5323.3 3627.55 4635.6 4256.67 4662.56 3457.48 5166.79 2976.22 3405.98 5417.15 3688.16 4681.72 4945.39 5996.33 3950.63 5415.19 4612.62 3619.07 5526.75 4275.57 6385.23 5327.45 2983.99 5560.26 2614.4 6363.92 6205.93 4439.35 5830.72 6184.4 3758.07 3828.81 4373.45 4082.57 5733.62 5169.9 5282.51 4460.92 3004.16 4042.28 5235.17 4421.12 4779.5 4340.76 5254.49 4221.28 4303.19 5514.84 3914.2 5421.53 5937.08 4135.08 5620.74 5233.29 4778.82 4312.56 4612.06 5467.84 5053.95 5926.11 6667.68 5767.9 5211.38 5089.62 5869.4 4741.26 4186.6 4255.85 4732.09 6136.49 4356.25 4216.95 5776.96 5742.74 5486.48 4947.24 3645.12 5424.88 6200.54 5415.85 5148.58 4199.45 8659.64 5469.13 4233.8 5765.42 6123.03 4997.83 4575.94 5325.44 5021.88 5956.65 4498.25 5564.23 4188.87 3735.24 4231.83 2435.33 6401.43 4074.48 4558.47 5020.71 5997.88 5839.71 5576.92 4318.48 5266.22 3930.79 5226.97 3685.13 3312.06 6004.68 3361.26 6799.4 6239.84 5865.39 4427.28 3931.07 6079.11 6430.39 7440.72 3949.6 5703.6 6326.18 5661.62 6631.19 6648.68 4467.04 4713.74 5626.61 5817.25 4084.49 5061.98 6632.99 4537.6 4923.24 4419.61 7177.44 4563.46 5309.98 6553.94 5255.18 5460.65 4767.78 5463.41 5225.33 4929.75 4435.36 6649.96 5134.39 5784.3 4256.57 5442.32 6088.68 4643.56 4863.01 5657.36 6124.08 5029.47 6306.21 5266.01 5253.37 7016.27 6515.8 3685.65 3701.16 4916.22 6022.7 5895.77 5750.07 4809.67 4757.74 6045.67 4209.49 3946.28 3821.94 4244.21 5367.73 3875.05 3540.11 4652.01 3456.47 7234.66 6599.66 4055.54 4976.12 6098.95 5453.98 4893.49 3991.42 4388.63 5102.75 4200.09 4597.29 5931.77 5151.21 6574.95 6333.29 4477.04 5731.57 5703.74 5662.55 5737.92 6408.83 5365.24 4004.35 4763.96 5754.18 5180.76 3418.99 4480.95 5278.36 4409.63 5521.25 3661.9 3082.32 5370.85 5949.46 3658.37 3178.54 5376.71 4448.13 5070.29 4807.28 4867.08 4266.03 5280.69 4220.03 6923.84 5407.78 5449.46 6179.96 6113.54 5147.36 6260.79 3963.76 5528.53 6799.88 3062.43 5726.66 5426.78 5652.0 2967.38 4159.35 6477.91 4237.98 6439.37 6045.22 4614.3 3532.3 5580.92 5769.98 5973.33 5067.46 3583.21 2221.99 2511.46 3580.58 4011.37 2775.69 5356.79 4785.25 3619.79 5424.46 4857.84 2978.76 4908.49 2040.66 4962.21 5884.9 3876.21 4673.35 5689.26 4992.42 4940.84 4351.38 4833.46 5933.7 7248.4 5280.12 5984.81 5439.9 3498.16 4409.27 4640.06 5471.74 5421.64 3548.39 3673.28 4858.51 4207.54 4886.12 6419.12 6107.89 4817.16 5148.08 4834.87 5760.22 5938.17 4795.43 5398.64 5097.95 6817.57 3614.96 3886.68 6853.04 4745.43 5831.96 4747.55 4360.23 3056.7 3755.95 6234.32 5293.51 4446.06 3450.93 5008.63 5132.68 6595.03 4993.35 6218.95 5222.16 5107.23 5136.08 3776.94 5558.68 4765.02 4010.57 5629.39 2684.03 6157.04 4768.61 2261.36 5075.55 5506.19 6719.94 4950.67 5227.59 6166.29 5453.6 5703.07 5294.77 4662.43 4709.05 4630.82 4043.66 4813.08 4540.86 5990.52 4835.83 5604.35 6316.56 4332.87 3091.67 6420.81 4081.97 5401.99 5151.52 4347.74 4009.62 5291.9 2081.58 6505.78 5461.55 6519.43 5876.64 4684.44 4749.59 4858.44 3468.42 3809.69 5571.72 4771.13 5297.19 4184.23 5550.75 5466.33 4444.97 5721.05 4247.69 4514.39 4588.99 4321.21 4344.34 4928.27 3583.49 5052.84 3375.28 4366.74 5625.65 4301.61 3184.64 4446.84 5660.55 3718.69 4514.79 3672.21 2216.82 4509.89 6752.75 5269.38 5607.3 5108.06 3573.73 4693.52 4222.4 4000.43 3420.08 4912.04 4539.07 5464.68 5591.76 4586.19 4585.31 6625.18 5323.91 4270.74 6293.89 4558.15 2761.07 4983.39 5366.52 4690.55 5533.72 5533.42 4802.32 3678.08 4599.38 5246.47 4187.31 6191.29 4522.21 7422.36 5161.01 4298.15 4628.4 5832.37 4642.93 5409.63 4263.16 3077.84 6024.75 6109.49 5567.93 5860.67 5332.65 3764.1 6451.33 5413.31 6400.08 4743.59 5208.14 4715.58 3317.83 4450.7 3763.05 5092.24 5369.08 3101.75 4518.04 4766.06 4874.18 5435.19 3298.2 4270.15 6865.76 6449.64 6464.8 4406.05 4680.94 5799.69 5236.43 3208.96 5285.07 7051.9 4608.41 4144.57 4187.94 5980.59 6834.41 6226.14 3796.15 3000.29 7216.98 5271.02 4209.31 5718.28 6242.79 5950.45 5713.03 5849.65 5134.67 4165.21 5297.16 4936.96 5206.33 5530.49 5452.78 5653.03 5065.26 4304.41 6192.0 4940.28 5885.28 3004.34 3022.6 2928.82 4914.45 4811.76 4698.87 4568.41 4661.03 3624.7 4691.91 5262.35 4475.83 2685.81 4510.8 5889.35 5010.04 4394.56 4570.98 5097.45 4275.07 5825.38 4185.61 5737.75 4047.87 5742.47 3778.02 6552.21 5417.8 5146.37 7132.12 4836.16 5518.57 5151.11 5463.48 5730.33 3240.51 5545.46 4527.99 4376.7 5190.61 8325.01 6051.83 3764.06 4440.81 5941.9 3973.12 5434.47 6642.76 4497.78 4243.79 5987.42 5433.65 4442.22 4887.76 4669.06 3012.99 4811.32 4286.49 6184.88 5829.32 4396.25 5551.95 5549.49 3918.87 5423.42 2275.45 6605.86 5012.5 4383.56 3562.79 7093.13 4953.1 5818.95 4093.99 3604.14 3940.49 4452.54 5089.1 2711.19 5828.35 5876.72 4028.32 4099.92 4884.59 3858.06 4680.14 4083.79 5263.27 6300.92 5021.77 5599.29 4801.8 4807.4 7013.17 3805.67 4601.74 6506.86 5088.57 5580.34 3852.6 5775.31 4215.0 4603.5 4481.76 4647.67 4356.36 4892.44 5578.94 7610.49 4286.17 6579.31 5323.55 5375.1 5313.12 5351.56 5160.59 3984.88 4732.09 4320.42 4255.34 5064.79 5480.3 7509.24 4146.81 5896.26 5388.78 4573.72 5099.21 4917.99 5636.4 4367.78 4350.12 5227.02 5670.0 4232.16 5300.96 4344.51 5680.94 3781.77 5581.55 5193.01 4543.1 6550.44 3860.83 5732.27 4523.39 5278.56 6917.62 5829.22 4013.38 5631.14 4343.78 5811.18 4909.65 4008.15 7693.4 4326.48 4437.07 3449.37 5491.9 6405.0 4659.16 5789.55 4633.05 4901.2 5711.62 4990.79 5166.79 6479.39 2895.63 4516.53 4122.92 5079.22 5381.54 5810.77 5474.15 7519.2 6355.68 4511.7 4478.6 3953.55 4304.63 4469.54 4314.56 4173.54 3928.53 6038.68 5046.12 3834.47 6349.67 4590.01 6101.86 5993.0 4803.57 5966.42 4110.59 4706.5 3332.49 5354.66 4214.44 5375.12 4787.97 3746.36 6789.23 4777.03 3684.56 4246.61 6028.09 5452.36 4172.6 3804.5 6486.37 5498.42 5318.53 3344.57 4281.98 7165.9 5344.83 3427.63 4863.97 6342.48 6101.13 5756.75 5599.7 6969.28 3665.95 5698.96 4095.75 3603.51 4298.45 5222.51 6609.84 5135.96 3834.43 5658.37 4707.06 6074.94 3474.5 5491.37 4250.88 3783.54 6348.03 3475.67 4792.39 7038.89 5146.37 5067.56 6137.8 2735.53 5263.3 3352.35 3747.03 6523.86 2783.85 4356.49 3994.07 4219.94 5907.46 4264.91 5399.29 4909.31 6522.59 4798.17 3568.28 5425.98 5996.66 4405.42 4997.91 2995.67 3598.08 4599.81 5698.23 7300.58 4714.83 3608.06 6633.61 5484.36 4277.24 4063.9 5291.05 5161.1 4619.2 5606.51 5166.41 5740.65 5067.56 6329.53 4139.3 6541.45 4227.41 4750.49 5078.31 5391.48 4923.43 5131.15 4847.14 3950.27 5116.66 5378.23 3566.79 5374.67 4981.43 3989.7 5069.89 4215.2 4157.29 6813.72 5327.75 4609.02 4638.18 4196.37 6448.66 5220.76 4453.97 6945.98 5138.2 7046.11 5783.48 4449.98 4504.35 4840.44 5093.82 4587.67 5951.81 4163.74 3924.14 4296.69 6238.32 3319.67 6471.42 5283.8 4076.59 4428.14 5164.1 6464.15 4479.11 4972.17 6685.4 5699.53 4222.77 6332.01 5268.38 5527.23 4805.33 3863.67 5980.95 4814.12 6193.08 6069.3 5887.01 5116.6 5388.39 5335.47 5633.61 4526.81 5048.19 6799.23 4888.27 6740.71 6487.56 4854.11 5971.22 5533.19 5417.21 6602.43 5583.61 6063.64 7382.3 5522.21 3772.3 4855.01 4923.57 3340.09 5217.95 4867.7 2279.05 4829.35 4075.28 8137.11 5484.32 6650.77 4067.96 7104.73 2596.96 5701.75 4350.15 3516.27 4263.78 4643.9 5228.75 6047.14 5009.83 5210.38 5717.8 3629.44 5003.78 3299.24 6246.56 4741.28 4061.6 2603.64 5107.0 6212.15 4783.07 4896.65 4946.23 6083.28 5211.6 3556.79 5806.31 3503.41 4701.5 7001.83 4771.65 5012.97 5589.37 5439.49 6918.35 4834.3 6804.79 6372.13 5369.5 5404.01 6016.19 4124.49 3230.13 5714.25 5325.96 4850.06 7044.29 4234.18 4049.16 7085.01 3936.95 6153.94 6836.82 3862.77 4631.99 5168.35 3185.39 3728.18 7122.87 5797.36 4243.26 4153.84 5119.86 4592.15 5084.17 4901.44 4998.22 5096.43 6156.21 6104.26 6171.71 4986.71 4668.88 4022.56 5027.43 5522.75 5867.64 6208.9 6059.93 5602.53 6061.63 6545.43 6760.92 4711.04 4506.18 4824.12 6162.3 3272.75 5971.21 4264.54 7043.44 6502.97 4852.58 5456.71 7317.04 6412.67 4036.91 6639.64 5212.43 5454.12 6348.54 4066.57 5642.35 5156.76 6357.47 6101.57 4891.38 5535.91 5955.86 6176.67 4848.46 5412.24 5016.02 2779.99 4920.21 4581.37 6942.34 5851.61 5478.11 5526.31 3858.17 5030.15 4740.98 5128.77 5089.26 3776.8 2460.79 4653.83 3628.89 6589.82 4438.58 5073.02 3472.91 4989.2 7144.05 2970.9 6542.5 4383.47 6318.23 4206.98 4058.87 5174.75 5932.07 4984.46 5948.71 4793.65 2949.12 3856.53 