# vtk DataFile Version 2.0
Time step 42
ASCII
DATASET UNSTRUCTURED_GRID
POINTS 5000 float
2398.29 104556.0 0
8533.23 103930.0 0
12438.9 103764.0 0
16747.6 103082.0 0
22243.6 104729.0 0
27669.4 101465.0 0
33204.4 104152.0 0
38184.8 104736.0 0
42703.4 104889.0 0
47472.4 104795.0 0
52137.1 104895.0 0
57005.0 103734.0 0
62763.5 104810.0 0
67994.7 104943.0 0
72702.5 104076.0 0
77500.0 104823.0 0
82500.0 104812.0 0
87407.7 104110.0 0
92500.0 104850.0 0
97192.6 104872.0 0
101292.0 104789.0 0
105946.0 104179.0 0
111936.0 104658.0 0
117850.0 104843.0 0
123330.0 104919.0 0
128345.0 105040.0 0
133428.0 104289.0 0
138124.0 104972.0 0
142500.0 104894.0 0
147500.0 104827.0 0
152501.0 104797.0 0
157589.0 104425.0 0
162561.0 104580.0 0
167010.0 104122.0 0
171830.0 103005.0 0
177734.0 103043.0 0
182938.0 102229.0 0
187393.0 104084.0 0
196079.0 104408.0 0
201747.0 103768.0 0
207650.0 104532.0 0
212985.0 103868.0 0
218128.0 104954.0 0
222479.0 104966.0 0
225794.0 104196.0 0
230434.0 104068.0 0
235810.0 105065.0 0
241170.0 103770.0 0
252680.0 103755.0 0
259052.0 104230.0 0
268740.0 104227.0 0
273935.0 104523.0 0
278881.0 103174.0 0
286325.0 104814.0 0
297319.0 103139.0 0
303664.0 103923.0 0
312126.0 104348.0 0
317928.0 104965.0 0
323245.0 104870.0 0
327581.0 105141.0 0
332206.0 104739.0 0
337223.0 104449.0 0
345896.0 103995.0 0
355259.0 104901.0 0
361815.0 103541.0 0
372012.0 101560.0 0
367954.0 104875.0 0
377031.0 103531.0 0
382609.0 104405.0 0
388132.0 103706.0 0
394019.0 103022.0 0
399200.0 104691.0 0
403650.0 101948.0 0
408587.0 103160.0 0
412474.0 104811.0 0
417500.0 104856.0 0
422737.0 102967.0 0
427271.0 104676.0 0
432478.0 102479.0 0
437540.0 104832.0 0
442089.0 103774.0 0
446251.0 103355.0 0
450665.0 104123.0 0
455208.0 104063.0 0
460242.0 103907.0 0
465794.0 104296.0 0
471628.0 103552.0 0
477063.0 102356.0 0
485844.0 102287.0 0
491674.0 103826.0 0
497601.0 102320.0 0
2284.5 109571.0 0
6062.08 107250.0 0
11086.9 108281.0 0
17332.2 108984.0 0
23005.1 110240.0 0
28519.1 107817.0 0
34968.9 109427.0 0
40341.4 109745.0 0
44464.2 110087.0 0
48279.4 108790.0 0
52500.0 109855.0 0
57995.1 109176.0 0
62849.9 109909.0 0
67505.2 109581.0 0
72116.1 109196.0 0
77500.0 109981.0 0
82116.1 109627.0 0
87907.8 108868.0 0
92500.0 109990.0 0
97183.5 109619.0 0
102467.0 109523.0 0
108243.0 108770.0 0
112500.0 109926.0 0
117500.0 110008.0 0
122500.0 109931.0 0
127727.0 109473.0 0
132494.0 109824.0 0
137520.0 109839.0 0
142774.0 109316.0 0
146926.0 109664.0 0
151938.0 109542.0 0
156861.0 108474.0 0
161296.0 109294.0 0
166509.0 108793.0 0
172971.0 108574.0 0
178375.0 108455.0 0
183532.0 107297.0 0
188603.0 108529.0 0
192498.0 105245.0 0
193570.0 109390.0 0
198250.0 108753.0 0
203920.0 109388.0 0
213692.0 108418.0 0
209357.0 109602.0 0
217601.0 110024.0 0
222033.0 109791.0 0
226801.0 108431.0 0
232205.0 109492.0 0
243283.0 110141.0 0
246502.0 105771.0 0
248462.0 109845.0 0
257263.0 108868.0 0
263773.0 105318.0 0
262325.0 109494.0 0
267062.0 109070.0 0
271611.0 108374.0 0
277074.0 108778.0 0
282030.0 106506.0 0
282828.0 110193.0 0
287500.0 109904.0 0
291717.0 105270.0 0
292912.0 109761.0 0
298249.0 108649.0 0
303118.0 109594.0 0
307730.0 106493.0 0
307441.0 109786.0 0
312501.0 110099.0 0
317476.0 109841.0 0
322433.0 109338.0 0
327500.0 109884.0 0
332500.0 109957.0 0
341019.0 105659.0 0
337713.0 109290.0 0
343307.0 108685.0 0
350687.0 105917.0 0
347752.0 109082.0 0
352668.0 109807.0 0
361441.0 108854.0 0
357755.0 109322.0 0
365114.0 108547.0 0
372930.0 108360.0 0
378819.0 108082.0 0
382004.0 109220.0 0
388375.0 108794.0 0
393554.0 109169.0 0
402999.0 108148.0 0
398136.0 109603.0 0
408388.0 107441.0 0
412864.0 108753.0 0
417519.0 109371.0 0
422128.0 107604.0 0
428326.0 109618.0 0
433428.0 107713.0 0
437510.0 109901.0 0
443214.0 108056.0 0
447601.0 107365.0 0
451945.0 108600.0 0
457176.0 108790.0 0
462429.0 110279.0 0
466599.0 108865.0 0
470193.0 110045.0 0
475181.0 108845.0 0
481305.0 105219.0 0
486589.0 108477.0 0
496837.0 107829.0 0
6739.14 112295.0 0
11843.4 114112.0 0
16323.5 114191.0 0
20503.0 114202.0 0
27043.3 114649.0 0
32615.7 114483.0 0
38263.3 114258.0 0
42970.2 114644.0 0
47588.6 113511.0 0
51800.3 115276.0 0
56554.3 114796.0 0
62114.9 114766.0 0
67697.5 114425.0 0
73695.5 114738.0 0
78211.1 115178.0 0
81954.6 114353.0 0
86960.4 114384.0 0
92531.5 114741.0 0
97548.4 114138.0 0
102630.0 115285.0 0
107924.0 113550.0 0
116732.0 114611.0 0
112494.0 114823.0 0
120857.0 114461.0 0
125864.0 113841.0 0
140992.0 113437.0 0
146306.0 114555.0 0
156245.0 113034.0 0
161703.0 114985.0 0
169997.0 113360.0 0
176294.0 114213.0 0
182187.0 112436.0 0
188049.0 114691.0 0
194261.0 114416.0 0
199972.0 113858.0 0
208111.0 114511.0 0
204288.0 114853.0 0
213300.0 113229.0 0
217709.0 114958.0 0
222564.0 114065.0 0
226872.0 113436.0 0
232444.0 114957.0 0
237686.0 110317.0 0
237422.0 114742.0 0
241792.0 115396.0 0
246842.0 113913.0 0
252678.0 110315.0 0
251784.0 115207.0 0
257737.0 113620.0 0
262719.0 114272.0 0
267489.0 113525.0 0
273047.0 113615.0 0
279878.0 112841.0 0
283554.0 115126.0 0
287216.0 115194.0 0
291017.0 114068.0 0
296734.0 113693.0 0
302234.0 114829.0 0
307700.0 114216.0 0
313207.0 115341.0 0
318189.0 114331.0 0
322509.0 113343.0 0
326812.0 115225.0 0
336511.0 113955.0 0
331856.0 114941.0 0
341414.0 112890.0 0
346845.0 113468.0 0
351893.0 114642.0 0
356026.0 113195.0 0
361260.0 113556.0 0
366513.0 112628.0 0
371101.0 114501.0 0
377673.0 114017.0 0
384354.0 112558.0 0
392424.0 113991.0 0
397217.0 113951.0 0
402858.0 114389.0 0
409243.0 113086.0 0
419144.0 114061.0 0
424121.0 112421.0 0
432249.0 113336.0 0
437341.0 114074.0 0
442358.0 113293.0 0
448275.0 112437.0 0
454178.0 114004.0 0
458991.0 115054.0 0
463187.0 114817.0 0
467519.0 114925.0 0
472372.0 113368.0 0
477746.0 114316.0 0
480797.0 110494.0 0
482622.0 115189.0 0
492077.0 110727.0 0
491506.0 114789.0 0
496591.0 114398.0 0
2238.62 115494.0 0
2182.12 119908.0 0
8050.25 118136.0 0
13471.8 118738.0 0
17752.3 118036.0 0
22417.2 118575.0 0
32072.3 118770.0 0
37588.9 119463.0 0
43205.5 119708.0 0
49063.5 118302.0 0
53807.2 119976.0 0
59222.9 119474.0 0
63616.9 119098.0 0
68064.9 120097.0 0
72603.0 119614.0 0
77068.8 119098.0 0
82136.1 119374.0 0
87334.1 119558.0 0
92269.2 120071.0 0
97732.2 119491.0 0
107685.0 119048.0 0
113113.0 119153.0 0
118139.0 119087.0 0
123420.0 118449.0 0
127500.0 120005.0 0
131158.0 115540.0 0
136445.0 115492.0 0
137738.0 119406.0 0
132691.0 120368.0 0
142524.0 119556.0 0
151834.0 116153.0 0
148002.0 119164.0 0
156828.0 118429.0 0
160406.0 119798.0 0
166528.0 116803.0 0
164429.0 120507.0 0
170842.0 119389.0 0
182233.0 117915.0 0
186625.0 120325.0 0
191646.0 119813.0 0
197223.0 119143.0 0
203055.0 118997.0 0
214360.0 118900.0 0
218717.0 120207.0 0
222021.0 118323.0 0
227506.0 118986.0 0
234332.0 119337.0 0
237874.0 118067.0 0
241749.0 119997.0 0
246211.0 119098.0 0
251518.0 120465.0 0
255872.0 118336.0 0
260337.0 118006.0 0
266350.0 118208.0 0
271757.0 119884.0 0
278361.0 118344.0 0
284358.0 119865.0 0
288758.0 118347.0 0
292983.0 120063.0 0
298941.0 119993.0 0
303985.0 120225.0 0
307500.0 120048.0 0
316256.0 119045.0 0
312166.0 119867.0 0
321078.0 118570.0 0
325851.0 120158.0 0
329893.0 118768.0 0
339780.0 118281.0 0
346088.0 119723.0 0
352844.0 120218.0 0
357350.0 117153.0 0
361674.0 119544.0 0
366551.0 117321.0 0
371934.0 120135.0 0
382813.0 118074.0 0
387369.0 119932.0 0
388338.0 115746.0 0
399508.0 119559.0 0
408059.0 118435.0 0
404321.0 119585.0 0
412347.0 120104.0 0
414412.0 115640.0 0
416949.0 119443.0 0
427685.0 115457.0 0
425658.0 119084.0 0
431066.0 119528.0 0
437115.0 118269.0 0
441812.0 118879.0 0
446525.0 117435.0 0
450849.0 117933.0 0
455408.0 119777.0 0
461201.0 119467.0 0
466976.0 119251.0 0
472594.0 118327.0 0
478847.0 119816.0 0
487506.0 116291.0 0
484705.0 120329.0 0
492124.0 118644.0 0
1482.5 124584.0 0
7154.66 124443.0 0
11904.9 122478.0 0
17161.3 123215.0 0
23052.8 123959.0 0
26988.6 120572.0 0
30224.1 123310.0 0
34874.9 124104.0 0
39764.1 123526.0 0
43682.8 125361.0 0
48582.2 123526.0 0
57213.3 123867.0 0
63065.0 123873.0 0
68310.7 125273.0 0
73401.0 123672.0 0
78302.1 124246.0 0
83593.4 124315.0 0
88397.8 124375.0 0
92508.5 124914.0 0
97237.0 124906.0 0
101195.0 124971.0 0
102767.0 120742.0 0
105586.0 124564.0 0
111306.0 123737.0 0
116640.0 124345.0 0
122098.0 123639.0 0
126931.0 124048.0 0
131218.0 124749.0 0
136577.0 123956.0 0
142212.0 125249.0 0
147011.0 123441.0 0
151801.0 125374.0 0
153419.0 120807.0 0
157942.0 124366.0 0
167047.0 123381.0 0
163657.0 124992.0 0
171003.0 125397.0 0
177032.0 120781.0 0
182933.0 124835.0 0
193693.0 123898.0 0
189204.0 124731.0 0
198249.0 125030.0 0
203175.0 124098.0 0
208748.0 120857.0 0
212115.0 125108.0 0
216320.0 123517.0 0
221176.0 123856.0 0
231983.0 123836.0 0
237943.0 122803.0 0
242843.0 124653.0 0
248029.0 124177.0 0
252898.0 124493.0 0
257727.0 123518.0 0
262637.0 121580.0 0
267588.0 124159.0 0
278480.0 124998.0 0
283574.0 124452.0 0
288835.0 123668.0 0
293487.0 124661.0 0
302639.0 124530.0 0
307115.0 124890.0 0
311941.0 124608.0 0
316966.0 123482.0 0
322296.0 124165.0 0
330938.0 124283.0 0
327151.0 125028.0 0
334357.0 120764.0 0
341521.0 123774.0 0
337122.0 124661.0 0
357892.0 123731.0 0
367104.0 122228.0 0
362982.0 124518.0 0
377880.0 121468.0 0
383272.0 124086.0 0
388209.0 124112.0 0
393045.0 120663.0 0
397892.0 125495.0 0
403054.0 123561.0 0
408162.0 123285.0 0
414684.0 123752.0 0
417929.0 125004.0 0
421365.0 120691.0 0
422499.0 125552.0 0
427477.0 123535.0 0
431262.0 124956.0 0
436126.0 123253.0 0
441995.0 124539.0 0
448330.0 122946.0 0
454027.0 124937.0 0
459445.0 125079.0 0
464981.0 124357.0 0
473888.0 123543.0 0
469646.0 125209.0 0
481986.0 124769.0 0
489148.0 121054.0 0
486773.0 124665.0 0
492177.0 125221.0 0
496754.0 121040.0 0
2749.61 128622.0 0
12670.9 126983.0 0
18088.3 128985.0 0
23745.4 129717.0 0
28648.4 127356.0 0
33632.7 129660.0 0
39134.8 128367.0 0
43745.4 129571.0 0
48694.1 129496.0 0
53134.7 125977.0 0
54181.6 130681.0 0
59720.1 128878.0 0
64871.6 129978.0 0
68289.7 129463.0 0
[...]
POINT_DATA 5000
SCALARS Radius float 1
LOOKUP_TABLE default
4796.58 3979.26 3471.03 5253.55 5820.48 5782.6 4862.21 5113.21 3929.19 4107.03 4478.15 5379.87 5925.6 4501.51 4792.73 4736.58 4931.38 3485.26 4329.05 4151.94 4049.23 5337.48 6124.89 5708.81 5252.48 4780.03 5495.39 3996.0 3856.1 4665.12 3383.4 4133.88 4834.9 3850.77 6044.04 5415.48 5120.0 3863.18 4998.37 6182.6 5492.18 5258.36 5061.3 3642.12 3163.97 5812.43 5122.66 5906.14 7513.1 5254.28 5733.48 4672.91 5580.89 5645.7 6810.52 5840.26 6110.27 5561.06 5073.35 3615.22 5670.04 4380.59 6716.79 5759.91 7613.27 5529.52 4951.03 5255.32 6037.08 5096.78 6756.95 4129.43 6324.23 3843.58 3320.52 4194.5 4270.53 5344.25 5191.63 4593.7 4150.99 4216.92 4742.68 4344.58 5634.83 5495.84 6268.1 4861.06 5320.28 6739.08 4797.52 4569.12 4298.67 5960.66 6608.73 5011.84 7034.11 6261.42 4502.5 3771.48 4043.57 4271.69 5681.38 4138.42 3708.04 5513.6 3240.09 4556.36 6082.81 3191.99 4685.34 5601.05 4929.8 3586.91 3103.0 3554.9 4015.92 5542.21 4487.31 3936.02 4044.71 5980.74 4094.62 4927.02 5546.39 5325.36 5484.83 5085.53 5351.6 2356.98 4730.36 4715.55 5867.73 3951.75 5013.56 4499.64 4375.68 5542.27 5054.98 5170.02 5484.19 3557.27 4688.68 4436.4 4402.52 4517.56 4182.53 5903.42 3588.44 3955.56 3761.32 5176.86 4118.05 4366.19 5553.16 3672.51 2938.66 4940.78 4231.61 4008.92 3942.53 3379.84 3589.27 4827.82 3997.1 3607.45 3260.67 5123.52 3038.33 4392.68 4333.2 7199.21 4523.7 2240.39 5091.39 5293.9 6142.94 3912.37 4727.24 4602.25 4790.08 5082.47 4763.45 5445.87 3815.26 4704.72 4177.94 4571.7 5896.46 5022.8 3784.5 3780.23 6481.79 5374.51 7042.12 6326.39 5873.69 4962.09 3999.48 4359.62 6946.21 2586.12 5433.8 4011.77 5499.11 3633.87 5922.5 5198.77 5987.17 6013.14 2765.2 4901.41 5110.37 5664.98 4382.74 5927.43 4651.28 3693.63 4384.42 4516.43 5481.78 5043.05 5816.2 5109.54 6483.19 5945.65 6759.9 5538.89 7021.47 5416.38 6059.59 4955.55 2720.68 5701.86 3563.63 4238.81 4468.59 5885.03 6030.06 2837.58 5325.02 5200.76 4927.31 5017.13 4862.64 5185.34 4432.58 6684.56 3968.64 4688.67 2635.86 5292.64 6166.5 5065.13 5936.02 5305.17 4861.08 4003.05 5390.22 4805.87 4712.33 5227.21 5697.78 4667.36 4091.31 6372.62 4295.38 5615.42 7565.34 5923.5 4612.68 4973.83 6342.25 6691.39 5135.69 5344.0 6045.46 4245.72 5908.1 6048.7 6133.92 3719.84 4178.4 3095.48 4166.08 4123.6 5224.12 4850.14 4819.73 3382.7 6817.32 4471.58 4319.79 6098.14 4472.17 4203.26 5188.81 6057.22 5062.71 6125.34 4527.08 5347.48 4850.01 3970.25 5147.67 3979.82 5011.31 5138.31 5264.06 4659.59 6327.9 6355.42 4362.19 5690.56 4948.92 3115.91 5637.59 4937.14 3307.12 4493.48 5924.89 5693.81 4002.16 4174.52 3486.22 3829.13 4684.5 6230.49 5418.62 4601.27 5493.32 5740.68 5926.61 5836.15 3261.21 4345.55 6704.06 3653.41 3871.88 3856.01 5246.2 4390.66 5279.39 3673.74 5205.43 6116.18 7447.37 4924.6 4385.06 4733.32 7184.19 2899.43 2924.37 4290.3 3867.67 5399.73 4660.72 3888.21 6038.78 6902.81 6644.76 4254.17 5629.19 5090.24 5740.84 5530.87 4310.18 4281.49 5978.9 4187.56 3629.62 4997.27 4840.84 4301.06 4020.32 4290.14 6562.18 4156.38 5316.75 4541.21 4164.68 5669.65 5934.22 5624.49 5762.59 7092.87 5163.55 4666.81 3954.91 2965.01 6643.85 3637.61 6222.42 5654.31 4730.41 3745.84 5690.26 4156.2 4497.59 5965.78 4810.12 5643.58 5215.05 4292.06 5577.04 5006.58 4602.86 3688.8 4548.16 3369.23 4048.37 5449.18 5492.26 5244.78 5762.84 3937.74 4749.8 6084.86 5478.92 4778.34 5551.36 4138.16 6894.71 3091.3 4414.54 5789.98 6458.82 7054.71 3641.64 5489.43 5747.75 4277.89 6051.14 4796.33 4195.44 5539.32 6496.85 5600.93 4874.39 5541.59 4124.71 5728.85 4827.23 4911.47 5863.59 4381.97 6257.19 3255.82 2812.98 4065.69 5603.15 4695.45 6052.7 3921.18 3798.62 5891.05 5308.1 3666.57 5655.21 4786.6 4645.41 6445.94 5542.14 4218.06 7134.64 6308.71 4716.19 5514.76 3456.98 3498.2 4877.67 5105.16 3066.13 4302.5 6006.16 6009.88 7055.53 5013.67 5826.04 5339.78 4970.88 4143.78 4636.5 3703.1 4940.42 5923.4 6471.55 5499.39 5501.93 5463.38 5945.21 4938.74 5696.88 5607.14 3923.03 5975.63 4374.35 5252.34 6396.74 4138.46 2775.04 3821.72 4986.77 6318.18 5586.81 4621.75 3948.17 4551.24 5358.59 4220.88 4515.71 6519.71 6640.13 5082.6 5810.84 4230.54 5094.44 3748.24 4655.49 4467.94 4850.81 6138.47 5527.54 5573.7 4727.62 5054.25 4055.8 7325.81 5280.17 5360.19 4794.96 6186.19 5083.08 6834.49 6337.56 5525.39 5803.39 3998.5 4024.3 6394.38 5555.28 5242.73 4737.14 4686.65 5834.74 5556.96 5788.23 5581.75 6392.01 4907.89 6730.19 4937.02 4907.06 4073.93 3735.44 6043.3 5952.75 4433.59 4320.28 6332.36 6122.55 2739.94 4931.53 5480.13 3323.28 6695.82 6405.76 5794.24 4678.38 5448.61 5050.65 4827.33 5206.48 5513.57 5729.23 5226.0 3365.82 4538.95 5965.15 4763.66 6090.91 4946.42 5085.71 6116.33 5644.82 6343.14 5462.21 5750.71 5470.77 4831.47 4643.85 4004.04 4289.17 5564.02 4274.61 2965.79 6898.19 6035.6 5137.34 4481.53 5330.45 4581.13 3610.4 4219.07 6387.01 5367.52 3092.35 4322.15 5210.03 3629.96 5478.47 5351.39 6142.37 6061.47 4933.21 5375.47 6038.14 2540.31 5120.49 6029.66 5262.61 6302.8 5697.4 6038.2 4270.95 4005.44 5206.78 5555.88 6732.43 6425.26 5143.58 4484.76 4839.34 4840.01 2980.99 7933.0 4455.12 5173.87 5938.34 5380.13 5711.87 5118.27 5169.36 5932.23 5791.61 3369.13 4479.66 3043.85 5367.2 5461.13 4726.76 3599.45 5839.13 5489.34 5163.9 5708.14 5537.72 3920.42 6155.31 4223.33 5911.67 5709.62 5835.78 4127.74 2476.04 3942.07 7443.72 3937.08 5260.34 4709.35 6586.45 4373.3 4750.78 4163.5 5724.64 5078.86 4780.2 5100.1 3561.29 4963.34 5019.93 3295.83 5081.78 4260.92 6263.44 5960.56 5774.97 4020.95 6313.06 3474.39 6470.3 6062.05 5082.74 6915.83 6072.45 4410.55 7099.43 5526.14 5198.29 5423.0 5077.33 3856.59 5413.79 6338.89 6202.55 5025.39 4714.54 5893.5 3320.11 5030.91 6022.17 5119.37 6163.38 4566.18 4723.12 3459.9 4964.09 5201.36 5024.9 4306.53 5409.61 5094.81 5972.06 5713.22 5861.71 5028.96 4359.04 3866.16 3794.63 6362.12 3778.1 5152.36 4511.82 5611.2 4220.65 6820.42 4816.2 4894.16 4896.52 4751.02 3372.79 4941.22 5282.64 4715.72 4669.66 4808.52 5046.33 5607.24 5053.92 5495.68 4863.72 5002.48 4262.82 5102.36 8332.24 4342.9 5069.84 4553.56 5329.64 4051.44 6049.55 5941.72 5991.09 5133.97 6600.94 4788.58 5371.02 6155.1 5876.71 5029.78 6515.84 4888.6 4918.77 4371.99 4219.78 3885.86 4459.28 5235.29 4479.94 6250.23 4118.84 4863.27 5862.86 3493.7 5374.98 4200.03 4719.7 6939.12 4735.33 5092.37 6444.77 4287.63 5315.4 6449.45 3975.31 4746.52 3689.45 3824.16 5572.95 3868.18 6723.16 5584.06 7111.16 4547.19 3817.13 5507.24 3982.23 4583.31 4503.89 5806.08 4853.39 4997.27 4093.08 4809.42 5543.27 4717.05 5659.17 6135.57 5998.38 4312.67 5423.8 3183.98 4989.15 5017.78 4524.28 5015.69 6175.81 4727.24 6677.09 5826.64 6959.81 4829.35 5201.67 6321.41 4089.76 5526.55 3192.41 5184.56 4987.87 3315.57 5804.71 4764.96 5727.3 4242.52 5356.51 6352.26 3847.38 3818.59 4087.15 3057.03 4143.08 7500.97 6623.85 5228.18 5787.31 5065.11 5868.82 4978.31 4050.9 4241.89 4099.77 5054.74 4537.32 4656.78 5126.91 3600.43 5131.24 5196.67 6496.67 5474.8 6262.72 3664.11 5117.47 4925.63 2990.77 5882.65 4739.14 4434.19 5187.7 4188.3 6261.75 5177.64 4255.31 5453.3 6413.02 3492.19 4584.5 5122.63 6049.79 4703.08 5274.19 5516.95 4406.4 5411.85 4844.57 4027.46 6314.07 5776.37 4516.28 3627.82 4044.45 5125.78 5344.43 4373.47 5045.38 5350.88 5372.61 3686.21 6480.17 5023.15 4377.07 6851.54 3813.22 5570.3 4336.42 5243.29 7589.94 4449.22 3130.65 5628.24 5856.11 5287.2 4109.88 4234.94 4562.29 5013.13 5080.66 4270.24 3417.33 4926.42 4164.13 4642.34 4520.1 4947.52 5874.89 4305.57 4293.03 4389.21 3791.79 4424.7 4925.44 4754.05 4951.47 6084.93 5215.15 4307.28 3697.96 4739.42 5538.93 5020.12 4745.45 2631.9 5281.28 6255.18 4277.88 4668.71 4758.21 7228.46 3948.23 6719.88 5978.82 5266.5 3927.99 4948.98 4414.48 5227.52 4092.24 4981.9 5163.02 7144.24 4906.82 5687.83 5004.23 6442.69 4648.04 6607.87 4721.32 3293.56 3163.78 5274.14 4903.82 5746.28 4623.61 4082.47 5511.6 4338.08 4378.3 6134.99 4094.73 4407.9 4440.57 5548.29 6766.43 2315.64 6345.13 5226.56 5599.49 5313.22 4413.85 3905.51 3999.94 4470.98 4864.22 5759.46 3921.08 4190.31 5678.96 5262.19 4244.9 6070.58 6034.41 5452.83 5130.91 5402.24 4519.22 6445.22 3844.9 5101.59 3963.86 3848.93 4306.11 5935.47 3402.32 5903.66 4528.49 5004.67 5365.89 3327.49 5992.26 3960.8 5070.39 4980.85 5714.58 5110.45 5208.32 5248.77 4083.97 4607.02 5153.74 4528.09 3895.51 4165.81 5813.4 6291.51 4128.98 5882.89 6246.22 4188.32 5246.61 4100.38 5344.77 4723.48 4899.11 5097.87 4278.07 7267.18 5320.92 5269.18 4406.1 6362.14 5034.59 4454.63 5080.18 5912.61 4523.88 3279.1 4066.38 4403.98 4560.84 4729.43 5776.57 4562.74 5598.74 7493.3 4814.55 6320.71 3464.83 5698.77 2477.07 6413.11 4305.16 5092.28 4965.89 5659.95 4152.85 2908.7 4453.64 4517.73 5469.47 5660.16 4989.56 4718.54 2588.37 6736.03 6235.57 3623.87 5916.16 4390.41 6113.95 4097.57 5017.5 5563.79 3901.8 6171.13 5511.88 5083.41 7055.42 5486.68 6048.86 4285.32 5490.43 5022.28 4959.34 4948.5 4527.02 4531.14 3695.36 4564.34 3838.56 4871.44 5076.35 6020.48 6375.99 5200.05 5234.29 5313.66 5419.37 4466.03 4511.54 5409.33 5196.0 4923.9 4973.78 3329.99 3947.47 3296.27 4713.25 4204.84 6243.0 6673.96 3556.85 5441.96 3435.9 5174.89 4288.3 5370.52 4652.29 5774.81 3746.31 5498.32 5027.98 5346.27 6475.1 4969.21 2691.29 2845.98 6256.02 5314.85 4305.43 5450.44 4942.77 5742.65 4263.33 5592.32 5381.16 6193.35 6086.96 5233.78 3701.27 5653.9 5046.21 5683.26 5894.61 5139.5 5304.13 5944.09 5833.06 3527.05 4923.41 4497.31 5384.76 5529.42 5257.12 5243.43 4537.14 5551.9 3757.34 6415.61 4687.64 4419.71 5037.06 3838.47 4541.8 5175.29 5842.56 5412.31 3087.09 6934.37 4890.5 4050.08 3981.07 5452.42 5328.22 6853.85 2395.5 3497.9 5941.61 4512.11 5782.48 6248.6 5683.61 3836.45 5100.25 6894.26 4986.51 5197.52 5178.99 5383.07 4591.87 5013.42 4790.78 4247.15 6552.22 5651.07 6248.81 5273.35 2651.49 4645.58 5512.23 5275.32 5985.29 4898.94 4178.15 4613.31 4733.04 6119.09 5788.66 5091.68 7531.29 5069.25 5048.89 3161.47 3991.03 6390.78 7435.25 6826.57 4788.87 4495.87 6022.72 4643.31 5527.33 5402.21 4989.09 4880.14 5289.52 4982.31 3848.54 4307.48 5941.4 5331.02 6510.17 4871.96 4863.23 4402.67 4470.61 5565.13 4384.88 6887.27 6008.49 4806.34 4287.53 5612.21 4929.14 5945.08 3979.54 3306.14 5490.58 4863.79 4702.06 3830.46 6031.67 4689.15 6138.12 4428.78 5409.66 4345.67 4765.72 4642.66 4752.14 5329.59 4888.12 4950.97 5512.16 3197.63 4863.96 5887.15 5203.08 7480.41 3423.15 4488.85 3731.84 4901.07 5186.3 3436.15 4151.76 4020.4 3493.47 4596.75 5443.58 4558.46 5805.86 4470.4 5311.03 5339.38 5255.12 6169.11 5615.35 4027.09 6422.84 4502.18 5379.09 4602.85 4962.77 5872.05 4853.02 4091.8 6259.23 5181.4 5670.2 4711.62 4247.23 4114.24 4268.65 4694.83 5509.42 4354.08 4256.43 5936.36 4520.62 3903.75 4755.47 5935.03 4485.99 5127.16 5475.8 5314.69 6050.81 5543.46 4249.46 5965.81 3702.37 4750.17 5660.85 2330.66 4177.19 6917.52 3587.05 6229.37 6718.19 5282.91 4425.84 7256.35 4800.69 3555.86 6386.78 4631.83 4996.99 6081.14 5480.83 4220.46 4607.85 5128.57 6000.7 3169.67 5604.21 4968.03 3361.92 6710.88 5395.14 3967.48 6213.04 3685.13 6790.73 4655.16 5251.4 3867.19 5857.79 4039.91 5276.7 5036.58 6119.63 5411.02 4752.9 4287.16 5199.44 5191.08 4062.5 4435.51 5374.07 5163.77 4588.7 3766.55 4579.69 3554.48 6496.52 5005.85 4216.17 6484.17 4721.02 4254.37 3374.08 4933.65 4031.78 6098.1 5708.99 4049.02 5346.68 5296.29 4611.53 4896.11 4285.66 5172.53 4135.62 5801.99 5210.48 7552.94 5323.3 5088.44 4998.21 4662.56 5349.31 2976.22 4649.22 5394.55 5094.52 4946.74 2682.24 5928.32 5229.48 5475.7 4016.18 5526.75 5435.74 4244.99 5327.45 5560.26 6185.89 3997.96 4439.35 3460.94 3990.25 3691.0 3758.07 4752.51 4236.14 4407.87 5733.62 5282.51 4460.92 3797.33 5945.89 4042.28 4105.55 4340.76 6566.1 6065.22 4221.28 4456.39 4896.39 3633.79 5421.53 5937.08 6070.3 5233.29 4312.56 4612.06 5204.04 4750.58 6667.68 5235.11 6622.11 5211.38 4590.55 5920.32 4255.85 5097.69 3988.3 6543.13 5149.72 5776.96 5464.25 5486.48 5301.47 4617.55 5424.88 5415.85 8659.64 5683.95 6027.62 5010.2 6123.03 5966.61 5711.11 4575.94 4938.72 3546.71 5768.57 5564.23 5950.04 5687.85 4231.83 2435.33 6401.43 5020.71 2681.29 5094.48 3872.61 4238.4 4318.48 6132.95 5534.94 4860.33 7644.38 6004.68 4051.34 6101.92 3627.55 6239.84 4635.6 4256.67 3457.48 5166.79 3931.07 3405.98 5417.15 3688.16 4681.72 4945.39 5996.33 3950.63 5415.19 4612.62 3619.07 4275.57 4467.04 6385.23 2983.99 2614.4 6363.92 6205.93 4923.24 5830.72 6184.4 3828.81 4373.45 4082.57 5255.18 5169.9 3004.16 4767.78 5235.17 4421.12 4779.5 5254.49 6649.96 4303.19 5514.84 5784.3 3914.2 4256.57 6088.68 4135.08 5620.74 4778.82 6124.08 5467.84 5053.95 5926.11 5253.37 5767.9 6515.8 5089.62 5869.4 4741.26 3701.16 4186.6 5895.77 4732.09 6136.49 4356.25 4216.95 4209.49 5742.74 4244.21 4947.24 3645.12 3875.05 6200.54 5148.58 4199.45 6599.66 5469.13 4233.8 5765.42 6098.95 4997.83 4893.49 5325.44 5021.88 5956.65 4498.25 4188.87 3735.24 6574.95 4074.48 4558.47 5731.57 5997.88 5839.71 5576.92 6408.83 5266.22 3930.79 4004.35 5226.97 3685.13 3312.06 3361.26 6799.4 5278.36 5865.39 4427.28 6079.11 3082.32 6430.39 7440.72 3949.6 5703.6 6326.18 5661.62 6631.19 6648.68 4713.74 5626.61 5817.25 4084.49 5061.98 6632.99 4537.6 5147.36 4419.61 7177.44 4563.46 5309.98 6553.94 5460.65 5652.0 5463.41 5225.33 4929.75 4435.36 6045.22 5134.39 3532.3 5769.98 5442.32 2221.99 4643.56 3580.58 4863.01 5356.79 5657.36 3619.79 5029.47 6306.21 5266.01 2978.76 2040.66 7016.27 3876.21 3685.65 5689.26 4916.22 6022.7 4940.84 5750.07 4809.67 4757.74 6045.67 3946.28 3821.94 5439.9 5367.73 3540.11 3456.47 4652.01 5421.64 7234.66 4207.54 4055.54 4886.12 6419.12 4976.12 5453.98 3991.42 4388.63 5102.75 4200.09 4597.29 5931.77 5151.21 5398.64 6333.29 4477.04 3886.68 5703.74 5662.55 5737.92 4360.23 5365.24 5293.51 4763.96 5754.18 5180.76 3418.99 4480.95 4993.35 4409.63 5521.25 3661.9 5370.85 5949.46 3658.37 3178.54 4765.02 5376.71 4448.13 5070.29 4807.28 4867.08 4266.03 5280.69 4220.03 6923.84 5407.78 5449.46 6179.96 6113.54 4662.43 6260.79 3963.76 5528.53 6799.88 3062.43 5726.66 5426.78 2967.38 4159.35 6477.91 4237.98 6439.37 4081.97 4614.3 5401.99 5580.92 5973.33 5067.46 3583.21 2511.46 4011.37 2775.69 4785.25 6519.43 5876.64 5424.46 4857.84 4908.49 4962.21 4858.44 5884.9 3468.42 4673.35 4992.42 5297.19 4351.38 4833.46 5933.7 7248.4 5280.12 5984.81 3498.16 4409.27 4640.06 5471.74 3548.39 3673.28 4858.51 3375.28 5625.65 4301.61 6107.89 4817.16 4446.84 5660.55 5148.08 4834.87 5760.22 3672.21 5938.17 4795.43 5097.95 6817.57 4693.52 3614.96 6853.04 4745.43 5831.96 4747.55 3056.7 3755.95 6234.32 4586.19 4446.06 3450.93 5008.63 4270.74 5132.68 6595.03 4558.15 6218.95 5222.16 5107.23 5136.08 3776.94 5558.68 4010.57 5629.39 2684.03 6157.04 4768.61 2261.36 5075.55 4522.21 5506.19 6719.94 4950.67 5227.59 6166.29 5453.6 5703.07 5294.77 4709.05 4630.82 4043.66 4813.08 5860.67 4540.86 5990.52 4835.83 5604.35 6316.56 4332.87 3091.67 6420.81 4715.58 4450.7 5151.52 5369.08 4347.74 4009.62 5291.9 2081.58 6505.78 5461.55 6865.76 6449.64 6464.8 4684.44 4749.59 5799.69 3809.69 5571.72 4771.13 3208.96 7051.9 4184.23 4144.57 5550.75 6834.41 6226.14 5466.33 4444.97 3000.29 5721.05 4247.69 4514.39 4588.99 4321.21 4344.34 4928.27 3583.49 5052.84 4366.74 5297.16 3184.64 5206.33 5530.49 5653.03 3718.69 4514.79 2216.82 4509.89 6752.75 5269.38 5607.3 5108.06 3573.73 2928.82 4222.4 4000.43 3420.08 4568.41 4912.04 4539.07 5464.68 2685.81 5591.76 4585.31 6625.18 5323.91 5097.45 6293.89 2761.07 5737.75 4983.39 5366.52 4690.55 5533.72 5533.42 4802.32 3678.08 4599.38 5246.47 4187.31 6191.29 3240.51 7422.36 5161.01 4298.15 4628.4 5832.37 6051.83 4642.93 5409.63 4263.16 3973.12 3077.84 6024.75 6109.49 5567.93 5987.42 5332.65 3764.1 4442.22 6451.33 5413.31 3012.99 6400.08 4743.59 5208.14 3317.83 3763.05 5092.24 5549.49 3101.75 4518.04 4766.06 4874.18 5435.19 3298.2 4270.15 4953.1 5818.95 4093.99 3940.49 4406.05 4680.94 5828.35 5876.72 5236.43 5285.07 4680.14 4608.41 4187.94 5980.59 3796.15 4801.8 7216.98 5271.02 4209.31 5718.28 6242.79 5950.45 5713.03 5849.65 5134.67 4165.21 4215.0 4936.96 4481.76 5452.78 5065.26 4304.41 6192.0 4940.28 5885.28 6579.31 3004.34 3022.6 4914.45 4811.76 4698.87 4661.03 3624.7 4691.91 5262.35 4475.83 4510.8 5889.35 5010.04 4394.56 4570.98 4275.07 5825.38 4185.61 4047.87 5742.47 3778.02 6552.21 5417.8 5146.37 7132.12 4836.16 5518.57 5151.11 5463.48 5730.33 5545.46 4527.99 4376.7 4543.1 5190.61 8325.01 3764.06 4440.81 5941.9 5434.47 6642.76 5829.22 4497.78 4243.79 5811.18 5433.65 4008.15 4887.76 4669.06 4811.32 4286.49 6184.88 5829.32 4396.25 5551.95 3918.87 5423.42 2275.45 6605.86 5012.5 4383.56 3562.79 7093.13 4516.53 4122.92 3604.14 4452.54 5089.1 2711.19 4028.32 4099.92 4884.59 3858.06 4511.7 4083.79 5263.27 6300.92 5021.77 4173.54 5599.29 6038.68 5046.12 4807.4 7013.17 3805.67 4601.74 6506.86 5088.57 5580.34 3852.6 5775.31 4706.5 4603.5 4647.67 5375.12 4356.36 4892.44 5578.94 7610.49 4286.17 3684.56 5323.55 5375.1 4172.6 5313.12 5351.56 5160.59 3984.88 4732.09 4320.42 4255.34 5064.79 5480.3 7509.24 4146.81 5896.26 5388.78 6101.13 4573.72 5099.21 4917.99 5636.4 4367.78 4350.12 5227.02 5670.0 4232.16 5300.96 4344.51 5680.94 3781.77 5581.55 5193.01 3474.5 6550.44 3860.83 6348.03 5732.27 4523.39 5278.56 5146.37 6917.62 4013.38 5631.14 4343.78 5263.3 4909.65 6523.86 7693.4 4326.48 4437.07 3449.37 5491.9 6405.0 4659.16 5789.55 4633.05 4901.2 5711.62 4990.79 4798.17 5166.79 6479.39 2895.63 4997.91 5079.22 5381.54 5810.77 4714.83 5474.15 7519.2 6355.68 4478.6 3953.55 4304.63 4469.54 4314.56 3928.53 5606.51 5740.65 3834.47 6349.67 6329.53 4590.01 6101.86 4227.41 5993.0 4803.57 5966.42 4110.59 3332.49 5354.66 4214.44 5378.23 4787.97 3746.36 6789.23 3989.7 4777.03 4246.61 6028.09 5452.36 3804.5 6486.37 5498.42 5318.53 3344.57 5220.76 4281.98 7165.9 5344.83 7046.11 3427.63 4863.97 6342.48 5756.75 5599.7 4587.67 4163.74 6969.28 3665.95 5698.96 4095.75 3603.51 4298.45 5222.51 6609.84 5135.96 3834.43 5658.37 4707.06 6074.94 5491.37 4250.88 3783.54 3475.67 4792.39 7038.89 3863.67 4814.12 5067.56 6137.8 2735.53 3352.35 5116.6 3747.03 2783.85 4356.49 4526.81 3994.07 4219.94 5907.46 4264.91 6740.71 5399.29 4909.31 5971.22 6522.59 6602.43 3568.28 5425.98 5996.66 4405.42 2995.67 3598.08 4599.81 5698.23 7300.58 3608.06 6633.61 5217.95 4867.7 5484.36 4277.24 4063.9 5291.05 5161.1 4619.2 5166.41 5067.56 2596.96 5701.75 4350.15 4139.3 6541.45 4750.49 5078.31 5391.48 4923.43 5131.15 4847.14 3950.27 5116.66 3566.79 5374.67 4981.43 4741.28 5069.89 4215.2 4157.29 6813.72 5327.75 4609.02 4896.65 4638.18 4196.37 6448.66 4453.97 6945.98 5138.2 5783.48 4449.98 4701.5 4504.35 4771.65 4840.44 5093.82 5951.81 3924.14 6918.35 4296.69 6238.32 3319.67 6471.42 5283.8 4076.59 4428.14 5164.1 6464.15 4479.11 4972.17 6685.4 5699.53 4222.77 6332.01 5268.38 5527.23 4805.33 4234.18 7085.01 5980.95 6193.08 6069.3 5887.01 5168.35 5388.39 5335.47 3728.18 5633.61 5048.19 6799.23 4888.27 4592.15 6487.56 4854.11 5533.19 4998.22 5417.21 5583.61 6063.64 7382.3 4022.56 5522.21 3772.3 4855.01 6208.9 4923.57 3340.09 6061.63 2279.05 4829.35 4075.28 8137.11 5484.32 6650.77 4067.96 7104.73 6162.3 3272.75 4264.54 3516.27 7043.44 4263.78 4643.9 5228.75 6047.14 5009.83 5210.38 5717.8 3629.44 5003.78 3299.24 6246.56 4061.6 2603.64 5107.0 6212.15 6502.97 4783.07 4946.23 4852.58 6083.28 5211.6 3556.79 5806.31 5456.71 3503.41 7317.04 6412.67 7001.83 5012.97 5589.37 5439.49 6639.64 5212.43 4834.3 6348.54 6804.79 5642.35 6372.13 5369.5 5404.01 6016.19 4124.49 3230.13 5714.25 6176.67 5325.96 4850.06 5016.02 7044.29 4920.21 4049.16 3936.95 6153.94 6836.82 3862.77 3858.17 4631.99 4740.98 3185.39 5128.77 7122.87 5797.36 4243.26 4153.84 5119.86 5089.26 5084.17 4901.44 3776.8 5096.43 6156.21 2460.79 6104.26 4653.83 6171.71 4986.71 3628.89 4668.88 5027.43 5522.75 5867.64 6059.93 5602.53 5073.02 6545.43 6760.92 4989.2 4711.04 7144.05 4506.18 4824.12 6542.5 4383.47 5971.21 4036.91 5454.12 4066.57 4206.98 5156.76 6357.47 6101.57 4891.38 5535.91 2949.12 5955.86 4533.37 4848.46 5412.24 2779.99 5887.38 4581.37 6942.34 5851.61 5478.11 5526.31 5030.15 6589.82 4438.58 3472.91 2970.9 6318.23 4058.87 5174.75 5932.07 4984.46 5948.71 