# vtk DataFile Version 2.0
Time step 37
ASCII
DATASET UNSTRUCTURED_GRID
POINTS 5000 float
27669.6 119063.0 0
372012.0 119158.0 0
2398.28 122153.0 0
8532.2 121527.0 0
12438.9 121361.0 0
16747.6 120679.0 0
22243.6 122326.0 0
33203.6 121750.0 0
38184.2 122333.0 0
42702.9 122486.0 0
47472.6 122393.0 0
52137.1 122491.0 0
57005.0 121331.0 0
62763.5 122407.0 0
67994.7 122540.0 0
72702.4 121673.0 0
77500.0 122420.0 0
82500.0 122409.0 0
87407.7 121707.0 0
92500.0 122447.0 0
97192.8 122469.0 0
101293.0 122386.0 0
105946.0 121776.0 0
111936.0 122255.0 0
117850.0 122440.0 0
123330.0 122516.0 0
128345.0 122637.0 0
133428.0 121886.0 0
138124.0 122569.0 0
142500.0 122490.0 0
147500.0 122424.0 0
152501.0 122394.0 0
157589.0 122022.0 0
162561.0 122177.0 0
167011.0 121719.0 0
171830.0 120602.0 0
177734.0 120640.0 0
182938.0 119826.0 0
187393.0 121681.0 0
192498.0 122842.0 0
196080.0 122005.0 0
201748.0 121365.0 0
207651.0 122129.0 0
212985.0 121465.0 0
218128.0 122551.0 0
222480.0 122563.0 0
225794.0 121794.0 0
230434.0 121665.0 0
235810.0 122662.0 0
241170.0 121367.0 0
246502.0 123368.0 0
252679.0 121352.0 0
259052.0 121827.0 0
263774.0 122915.0 0
268740.0 121825.0 0
273935.0 122120.0 0
278881.0 120771.0 0
282030.0 124103.0 0
286325.0 122411.0 0
291717.0 122867.0 0
297319.0 120736.0 0
303664.0 121521.0 0
307730.0 124091.0 0
312126.0 121944.0 0
317928.0 122563.0 0
323245.0 122467.0 0
327581.0 122738.0 0
332206.0 122336.0 0
337223.0 122045.0 0
341019.0 123256.0 0
345896.0 121592.0 0
350687.0 123514.0 0
355259.0 122499.0 0
361815.0 121138.0 0
367954.0 122473.0 0
377031.0 121129.0 0
382609.0 122003.0 0
388132.0 121303.0 0
394019.0 120619.0 0
399200.0 122289.0 0
403649.0 119546.0 0
408587.0 120758.0 0
412474.0 122408.0 0
417500.0 122453.0 0
422737.0 120564.0 0
427271.0 122274.0 0
432479.0 120077.0 0
437539.0 122430.0 0
442089.0 121371.0 0
446252.0 120952.0 0
450665.0 121720.0 0
455208.0 121661.0 0
460242.0 121505.0 0
465794.0 121893.0 0
471628.0 121150.0 0
477063.0 119953.0 0
481305.0 122816.0 0
485844.0 119884.0 0
491674.0 121423.0 0
497601.0 119917.0 0
2284.43 127170.0 0
6061.54 124848.0 0
11086.5 125879.0 0
17331.8 126581.0 0
23004.5 127838.0 0
28518.4 125414.0 0
34968.3 127024.0 0
40340.8 127343.0 0
44463.6 127685.0 0
48278.8 126388.0 0
52500.0 127452.0 0
57995.0 126773.0 0
62849.8 127506.0 0
67505.2 127178.0 0
72116.4 126793.0 0
77500.0 127578.0 0
82116.1 127224.0 0
87907.8 126465.0 0
92500.0 127587.0 0
97183.6 127217.0 0
102467.0 127120.0 0
108243.0 126367.0 0
112500.0 127523.0 0
117500.0 127605.0 0
122500.0 127528.0 0
127727.0 127070.0 0
132494.0 127421.0 0
137520.0 127436.0 0
142774.0 126913.0 0
146927.0 127261.0 0
151938.0 127139.0 0
156861.0 126071.0 0
161297.0 126891.0 0
166510.0 126391.0 0
172971.0 126171.0 0
178375.0 126052.0 0
183532.0 124894.0 0
188603.0 126126.0 0
193570.0 126987.0 0
198250.0 126350.0 0
203920.0 126985.0 0
213692.0 126016.0 0
209356.0 127200.0 0
217601.0 127621.0 0
222033.0 127388.0 0
226802.0 126028.0 0
232206.0 127089.0 0
237686.0 127913.0 0
243284.0 127739.0 0
248461.0 127442.0 0
252677.0 127912.0 0
257262.0 126465.0 0
262325.0 127091.0 0
267063.0 126668.0 0
271612.0 125973.0 0
277073.0 126377.0 0
282828.0 127790.0 0
287500.0 127501.0 0
292911.0 127359.0 0
298249.0 126246.0 0
303118.0 127191.0 0
307442.0 127384.0 0
312501.0 127696.0 0
317477.0 127439.0 0
322434.0 126935.0 0
327500.0 127481.0 0
332500.0 127554.0 0
337713.0 126888.0 0
343307.0 126282.0 0
347751.0 126680.0 0
352668.0 127404.0 0
361441.0 126451.0 0
357756.0 126919.0 0
365115.0 126146.0 0
372930.0 125958.0 0
378819.0 125680.0 0
382004.0 126818.0 0
388374.0 126391.0 0
393553.0 126766.0 0
402998.0 125746.0 0
398136.0 127200.0 0
408387.0 125038.0 0
412863.0 126350.0 0
417519.0 126968.0 0
422128.0 125201.0 0
428326.0 127216.0 0
433428.0 125311.0 0
437510.0 127498.0 0
443214.0 125654.0 0
447601.0 124961.0 0
451945.0 126198.0 0
457176.0 126388.0 0
462429.0 127876.0 0
466599.0 126463.0 0
470193.0 127643.0 0
475181.0 126443.0 0
480797.0 128091.0 0
486589.0 126074.0 0
492077.0 128324.0 0
496837.0 125426.0 0
2238.62 133091.0 0
6739.42 129893.0 0
11843.6 131710.0 0
16323.6 131789.0 0
20503.1 131800.0 0
27042.7 132247.0 0
32615.4 132081.0 0
38262.6 131855.0 0
42969.5 132241.0 0
47588.1 131109.0 0
51800.0 132873.0 0
56553.9 132393.0 0
62114.5 132364.0 0
67697.0 132022.0 0
73695.7 132336.0 0
78211.2 132775.0 0
81954.6 131950.0 0
86960.4 131981.0 0
92531.5 132338.0 0
97548.3 131736.0 0
102630.0 132882.0 0
107924.0 131147.0 0
116732.0 132208.0 0
112494.0 132421.0 0
120857.0 132058.0 0
125864.0 131439.0 0
131158.0 133137.0 0
136445.0 133089.0 0
140993.0 131034.0 0
146306.0 132152.0 0
151835.0 133751.0 0
156245.0 130632.0 0
161703.0 132582.0 0
166528.0 134401.0 0
169997.0 130958.0 0
176294.0 131810.0 0
182187.0 130033.0 0
188049.0 132288.0 0
194261.0 132013.0 0
199972.0 131455.0 0
208111.0 132108.0 0
204288.0 132450.0 0
213300.0 130827.0 0
217709.0 132555.0 0
222564.0 131663.0 0
226872.0 131033.0 0
232444.0 132554.0 0
237422.0 132339.0 0
241792.0 132993.0 0
246842.0 131511.0 0
251785.0 132804.0 0
257737.0 131217.0 0
262719.0 131869.0 0
267488.0 131123.0 0
273046.0 131214.0 0
279878.0 130438.0 0
283555.0 132723.0 0
287216.0 132791.0 0
291018.0 131666.0 0
296735.0 131290.0 0
302234.0 132426.0 0
307701.0 131814.0 0
313207.0 132939.0 0
318189.0 131929.0 0
322510.0 130941.0 0
326813.0 132823.0 0
336511.0 131552.0 0
331856.0 132540.0 0
341413.0 130487.0 0
346845.0 131066.0 0
351893.0 132239.0 0
356026.0 130793.0 0
361260.0 131153.0 0
357350.0 134750.0 0
366513.0 130227.0 0
371101.0 132099.0 0
377674.0 131615.0 0
384355.0 130156.0 0
392423.0 131588.0 0
388338.0 133345.0 0
397217.0 131548.0 0
402858.0 131987.0 0
409243.0 130683.0 0
414412.0 133238.0 0
419143.0 131658.0 0
424120.0 130019.0 0
427684.0 133055.0 0
432248.0 130934.0 0
437340.0 131673.0 0
442357.0 130890.0 0
448273.0 130034.0 0
454176.0 131602.0 0
458990.0 132650.0 0
463185.0 132414.0 0
467519.0 132524.0 0
472372.0 130965.0 0
477747.0 131915.0 0
482622.0 132786.0 0
487506.0 133887.0 0
491506.0 132386.0 0
496591.0 131995.0 0
2182.12 137505.0 0
8050.27 135734.0 0
13471.7 136336.0 0
17752.1 135633.0 0
22416.9 136173.0 0
26987.9 138171.0 0
32071.5 136368.0 0
37588.2 137060.0 0
43204.7 137304.0 0
49063.5 135900.0 0
53807.2 137573.0 0
59222.6 137071.0 0
63616.7 136696.0 0
68064.9 137694.0 0
72603.0 137211.0 0
77068.8 136695.0 0
82136.1 136971.0 0
87334.1 137155.0 0
92269.2 137668.0 0
97732.3 137088.0 0
102767.0 138339.0 0
107685.0 136645.0 0
113112.0 136750.0 0
118138.0 136684.0 0
123420.0 136045.0 0
127500.0 137602.0 0
137738.0 137003.0 0
132691.0 137965.0 0
142523.0 137153.0 0
148001.0 136761.0 0
156828.0 136027.0 0
153419.0 138404.0 0
160406.0 137395.0 0
164429.0 138104.0 0
170842.0 136987.0 0
177032.0 138378.0 0
182233.0 135512.0 0
186625.0 137922.0 0
191646.0 137410.0 0
197223.0 136740.0 0
203055.0 136594.0 0
208748.0 138454.0 0
214360.0 136497.0 0
218717.0 137803.0 0
222022.0 135921.0 0
227507.0 136583.0 0
234331.0 136934.0 0
237873.0 135664.0 0
241750.0 137595.0 0
246211.0 136696.0 0
251519.0 138062.0 0
255873.0 135933.0 0
260337.0 135604.0 0
262637.0 139178.0 0
266351.0 135806.0 0
271757.0 137483.0 0
278361.0 135941.0 0
284358.0 137462.0 0
288758.0 135945.0 0
292983.0 137661.0 0
298941.0 137590.0 0
303985.0 137822.0 0
307500.0 137645.0 0
316255.0 136644.0 0
312166.0 137464.0 0
321077.0 136169.0 0
325850.0 137755.0 0
329893.0 136366.0 0
334357.0 138361.0 0
339780.0 135878.0 0
346088.0 137321.0 0
352844.0 137815.0 0
361674.0 137141.0 0
366552.0 134919.0 0
367105.0 139827.0 0
371934.0 137733.0 0
377880.0 139066.0 0
382813.0 135672.0 0
387369.0 137530.0 0
393045.0 138259.0 0
399508.0 137157.0 0
408059.0 136032.0 0
404320.0 137182.0 0
412348.0 137703.0 0
416949.0 137040.0 0
421365.0 138291.0 0
425657.0 136682.0 0
431065.0 137125.0 0
437115.0 135868.0 0
441813.0 136476.0 0
446525.0 135032.0 0
450850.0 135532.0 0
455409.0 137374.0 0
461203.0 137065.0 0
466978.0 136850.0 0
472596.0 135924.0 0
478848.0 137414.0 0
484705.0 137927.0 0
489148.0 138651.0 0
492124.0 136242.0 0
496754.0 138637.0 0
1482.5 142182.0 0
7153.76 142041.0 0
11903.8 140075.0 0
12670.1 144580.0 0
17160.8 140812.0 0
23052.1 141557.0 0
30223.7 140908.0 0
28648.0 144954.0 0
34874.5 141701.0 0
39763.7 141124.0 0
43681.9 142959.0 0
48580.9 141124.0 0
53134.0 143573.0 0
57213.0 141463.0 0
63065.6 141471.0 0
68311.5 142870.0 0
73400.4 141270.0 0
78301.4 141844.0 0
83592.8 141912.0 0
88397.1 141972.0 0
92507.8 142510.0 0
97237.1 142503.0 0
101195.0 142568.0 0
105586.0 142161.0 0
111306.0 141334.0 0
116640.0 141942.0 0
122098.0 141236.0 0
126931.0 141646.0 0
131218.0 142346.0 0
136577.0 141553.0 0
142212.0 142847.0 0
147011.0 141038.0 0
151801.0 142971.0 0
157942.0 141963.0 0
167047.0 140978.0 0
163658.0 142589.0 0
171004.0 142995.0 0
176728.0 144669.0 0
182933.0 142431.0 0
193693.0 141496.0 0
189204.0 142329.0 0
198249.0 142628.0 0
203175.0 141695.0 0
207321.0 143834.0 0
212116.0 142705.0 0
216320.0 141114.0 0
221176.0 141452.0 0
226331.0 143221.0 0
231983.0 141434.0 0
237943.0 140399.0 0
242843.0 142249.0 0
248030.0 141774.0 0
252898.0 142090.0 0
257728.0 141115.0 0
262831.0 144757.0 0
267588.0 141757.0 0
272698.0 143368.0 0
278480.0 142595.0 0
283574.0 142049.0 0
288835.0 141266.0 0
293487.0 142258.0 0
297507.0 143636.0 0
302639.0 142127.0 0
307116.0 142487.0 0
311942.0 142205.0 0
316967.0 141080.0 0
322297.0 141764.0 0
330939.0 141881.0 0
327152.0 142625.0 0
341520.0 141371.0 0
337121.0 142259.0 0
346661.0 143286.0 0
351580.0 143466.0 0
357892.0 141327.0 0
362982.0 142115.0 0
370166.0 143273.0 0
374543.0 143290.0 0
383271.0 141685.0 0
388208.0 141710.0 0
392170.0 144505.0 0
397893.0 143093.0 0
403055.0 141159.0 0
408163.0 140883.0 0
414683.0 141350.0 0
417928.0 142601.0 0
422498.0 143152.0 0
427477.0 141133.0 0
431260.0 142554.0 0
436124.0 140852.0 0
441993.0 142137.0 0
448329.0 140544.0 0
454026.0 142533.0 0
459444.0 142676.0 0
464980.0 141955.0 0
473887.0 141141.0 0
469644.0 142806.0 0
477662.0 144213.0 0
481986.0 142368.0 0
[...]
POINT_DATA 5000
SCALARS Radius float 1
LOOKUP_TABLE default
5782.6 5529.52 4796.58 3979.26 3471.03 5253.55 5820.48 4862.21 5113.21 3929.19 4107.03 4478.15 5379.87 5925.6 4501.51 4792.73 4736.58 4931.38 3485.26 4329.05 4151.94 4049.23 5337.48 6124.89 5708.81 5252.48 4780.03 5495.39 3996.0 3856.1 4665.12 3383.4 4133.88 4834.9 3850.77 6044.04 5415.48 5120.0 3863.18 2356.98 4998.37 6182.6 5492.18 5258.36 5061.3 3642.12 3163.97 5812.43 5122.66 5906.14 5484.19 7513.1 5254.28 4436.4 5733.48 4672.91 5580.89 3588.44 5645.7 5176.86 6810.52 5840.26 3672.51 6110.27 5561.06 5073.35 3615.22 5670.04 4380.59 3589.27 6716.79 3607.45 5759.91 7613.27 4951.03 5255.32 6037.08 5096.78 6756.95 4129.43 6324.23 3843.58 3320.52 4194.5 4270.53 5344.25 5191.63 4593.7 4150.99 4216.92 4742.68 4344.58 5634.83 5495.84 6268.1 4861.06 5374.51 5320.28 6739.08 4797.52 4569.12 4298.67 5960.66 6608.73 5011.84 7034.11 6261.42 4502.5 3771.48 4043.57 4271.69 5681.38 4138.42 3708.04 5513.6 3240.09 4556.36 6082.81 3191.99 4685.34 5601.05 4929.8 3586.91 3103.0 3554.9 4015.92 5542.21 4487.31 3936.02 4044.71 5980.74 4094.62 4927.02 5546.39 5325.36 5484.83 5085.53 5351.6 4730.36 4715.55 5867.73 3951.75 5013.56 4499.64 4375.68 5542.27 5054.98 6030.06 5170.02 3557.27 4927.31 4688.68 4402.52 4517.56 4182.53 5903.42 3955.56 3761.32 4118.05 4366.19 5553.16 2938.66 4940.78 4231.61 4008.92 3942.53 3379.84 4827.82 3997.1 3260.67 5123.52 3038.33 4392.68 4333.2 7199.21 4523.7 2240.39 5091.39 5293.9 6142.94 3912.37 4727.24 4602.25 4790.08 5082.47 4763.45 5445.87 3815.26 4704.72 4177.94 4571.7 5896.46 5022.8 3784.5 3780.23 6481.79 5224.12 7042.12 4819.73 6326.39 4471.58 5873.69 4962.09 3999.48 4359.62 6946.21 2586.12 5433.8 4011.77 5499.11 3633.87 5922.5 5198.77 5987.17 6013.14 2765.2 4901.41 5110.37 5664.98 4382.74 5927.43 4651.28 3693.63 4384.42 4516.43 5481.78 5637.59 4937.14 5043.05 5816.2 5693.81 5109.54 6483.19 3829.13 5945.65 6759.9 5538.89 7021.47 5416.38 6059.59 4955.55 2720.68 5701.86 3563.63 4238.81 4468.59 5885.03 2837.58 5325.02 5200.76 5017.13 4862.64 5185.34 4432.58 6684.56 3968.64 4688.67 2635.86 5292.64 6166.5 5065.13 5936.02 5305.17 4861.08 4003.05 5390.22 4805.87 4712.33 5227.21 5697.78 4667.36 4091.31 6372.62 4254.17 4295.38 5615.42 7565.34 5923.5 4612.68 4281.49 4973.83 6342.25 6691.39 4840.84 5135.69 5344.0 4020.32 6045.46 4245.72 5908.1 6048.7 6133.92 3719.84 4178.4 3095.48 4166.08 4123.6 4850.14 5163.55 3382.7 6817.32 4319.79 6098.14 4472.17 4203.26 5188.81 4730.41 6057.22 5062.71 6125.34 4527.08 5347.48 4850.01 3970.25 5147.67 3979.82 5011.31 5138.31 5264.06 4659.59 6327.9 4048.37 6355.42 4362.19 5690.56 4948.92 3115.91 3307.12 4493.48 5924.89 4002.16 4174.52 4138.16 3486.22 4684.5 6230.49 6458.82 5418.62 4601.27 5493.32 5740.68 5926.61 6051.14 5836.15 3261.21 4345.55 6704.06 3653.41 3871.88 3856.01 5246.2 4390.66 5279.39 3673.74 4827.23 5205.43 6116.18 7447.37 4924.6 4385.06 4733.32 7184.19 2899.43 2924.37 4290.3 3867.67 5399.73 4660.72 3888.21 5891.05 6038.78 6902.81 6644.76 5629.19 5090.24 4786.6 5740.84 6445.94 5530.87 4310.18 7134.64 5978.9 4187.56 3629.62 4997.27 4301.06 4877.67 4290.14 6562.18 4156.38 5316.75 4541.21 4164.68 5669.65 5934.22 5624.49 5762.59 7092.87 4666.81 3703.1 3954.91 6471.55 2965.01 6643.85 3637.61 5501.93 6222.42 5654.31 3745.84 4938.74 5690.26 4156.2 4497.59 5965.78 4374.35 4810.12 5643.58 5215.05 4292.06 5577.04 5006.58 4602.86 3688.8 4548.16 3369.23 5449.18 5492.26 5244.78 5762.84 3937.74 4749.8 6084.86 5478.92 4778.34 5551.36 6894.71 3091.3 4414.54 5789.98 6138.47 7054.71 3641.64 5489.43 5747.75 4277.89 5054.25 4796.33 4195.44 5539.32 5360.19 6496.85 5600.93 4874.39 5541.59 4124.71 5728.85 6337.56 4911.47 5803.39 5863.59 4381.97 6257.19 3255.82 5242.73 2812.98 4065.69 5603.15 4695.45 6052.7 3921.18 3798.62 5308.1 3666.57 4907.89 4937.02 5655.21 4645.41 4433.59 4320.28 5542.14 4218.06 5480.13 6308.71 4716.19 5514.76 3456.98 3498.2 5105.16 3066.13 4302.5 6006.16 6009.88 7055.53 5013.67 5826.04 5339.78 4970.88 4143.78 4763.66 4636.5 4940.42 5923.4 5085.71 5499.39 5644.82 5463.38 5945.21 5696.88 5607.14 3923.03 5975.63 5252.34 6396.74 4138.46 2775.04 3821.72 4986.77 6318.18 5586.81 4621.75 3948.17 4551.24 5358.59 4220.88 4515.71 6519.71 6640.13 5082.6 5810.84 4230.54 5094.44 3748.24 4655.49 4467.94 4850.81 6038.14 2540.31 6029.66 5527.54 5573.7 5697.4 4727.62 4270.95 4055.8 7325.81 5280.17 6425.26 5143.58 4794.96 6186.19 4839.34 5083.08 6834.49 5525.39 3998.5 5938.34 4024.3 6394.38 5555.28 5169.36 4737.14 4686.65 5834.74 5556.96 5788.23 5581.75 6392.01 3599.45 6730.19 4907.06 4073.93 3735.44 6043.3 5952.75 6332.36 6122.55 2739.94 4931.53 4223.33 5911.67 3323.28 6695.82 6405.76 5794.24 4678.38 5448.61 5050.65 4827.33 5206.48 5513.57 5729.23 5226.0 3365.82 4538.95 5965.15 4780.2 6090.91 4946.42 5019.93 5081.78 6116.33 6263.44 6343.14 5774.97 5462.21 5750.71 5470.77 4831.47 4643.85 4004.04 4289.17 5564.02 4274.61 2965.79 6898.19 6035.6 5137.34 4481.53 5330.45 4581.13 3610.4 4219.07 6387.01 5367.52 3092.35 4322.15 5210.03 3629.96 5478.47 5351.39 6142.37 6061.47 4933.21 5375.47 4723.12 5120.49 5201.36 5262.61 6302.8 5409.61 6038.2 4005.44 5206.78 5555.88 6732.43 5028.96 3866.16 6362.12 4484.76 4840.01 2980.99 5611.2 7933.0 4455.12 5173.87 4894.16 5380.13 5711.87 5118.27 4941.22 5932.23 5791.61 3369.13 4479.66 3043.85 5367.2 5461.13 4726.76 5839.13 5495.68 5489.34 5163.9 5708.14 5537.72 3920.42 8332.24 6155.31 4553.56 5329.64 6049.55 5709.62 5835.78 4127.74 2476.04 5133.97 3942.07 7443.72 3937.08 5260.34 4709.35 6586.45 4373.3 4750.78 4163.5 5724.64 5078.86 5100.1 3561.29 4963.34 3295.83 4459.28 4260.92 5960.56 4118.84 4020.95 6313.06 3474.39 6470.3 4200.03 6062.05 5082.74 6915.83 6072.45 4410.55 7099.43 5526.14 5198.29 5423.0 5077.33 3856.59 4746.52 5413.79 6338.89 6202.55 5025.39 4714.54 5893.5 3320.11 5030.91 6022.17 5119.37 3982.23 6163.38 4566.18 3459.9 4964.09 4809.42 5024.9 4306.53 5659.17 5094.81 5972.06 5713.22 5861.71 4359.04 3183.98 3794.63 4524.28 3778.1 5152.36 4511.82 5826.64 4220.65 6820.42 4816.2 6321.41 4896.52 4751.02 3372.79 5184.56 5282.64 4715.72 4669.66 4808.52 5046.33 5607.24 5053.92 6352.26 3847.38 3818.59 4863.72 5002.48 6623.85 4262.82 5102.36 4342.9 5069.84 4051.44 4241.89 5054.74 5941.72 5991.09 6600.94 4788.58 5371.02 6155.1 5876.71 6262.72 5029.78 6515.84 4888.6 2990.77 4739.14 4918.77 4371.99 4219.78 3885.86 5235.29 4479.94 6250.23 6413.02 4863.27 5862.86 6049.79 3493.7 5374.98 4719.7 6939.12 4735.33 5411.85 5092.37 6444.77 6314.07 4287.63 5315.4 6449.45 3975.31 3689.45 3824.16 5572.95 3868.18 6723.16 5584.06 7111.16 4547.19 3817.13 5507.24 6851.54 4583.31 4503.89 5806.08 4853.39 4997.27 4093.08 4449.22 5543.27 4717.05 5287.2 6135.57 5998.38 4312.67 5423.8 4270.24 4989.15 5017.78 5015.69 6175.81 4727.24 6677.09 4305.57 6959.81 4829.35 5201.67 4424.7 4089.76 5526.55 3192.41 5215.15 4987.87 3315.57 5804.71 4764.96 5727.3 4242.52 5356.51 4277.88 4087.15 3057.03 4143.08 7500.97 3948.23 5228.18 5787.31 5065.11 3927.99 5868.82 4978.31 4050.9 4099.77 4537.32 4981.9 4656.78 5126.91 3600.43 5131.24 5196.67 6496.67 5474.8 3664.11 5117.47 4925.63 5882.65 4434.19 5187.7 4623.61 4188.3 6261.75 5177.64 4255.31 5453.3 4407.9 3492.19 4584.5 5122.63 4703.08 6345.13 5274.19 5516.95 4406.4 4413.85 4844.57 4027.46 4470.98 5776.37 4516.28 3627.82 4044.45 5125.78 5344.43 4373.47 5045.38 5350.88 5372.61 3686.21 6480.17 5023.15 4377.07 3813.22 5101.59 5570.3 4336.42 5243.29 7589.94 3130.65 5628.24 5856.11 3327.49 4109.88 4234.94 4562.29 5013.13 5080.66 3417.33 4926.42 4164.13 4642.34 4520.1 4947.52 5874.89 4293.03 5813.4 4389.21 3791.79 4925.44 4754.05 4951.47 6084.93 4307.28 3697.96 4739.42 5538.93 5020.12 4745.45 2631.9 5281.28 6255.18 4668.71 4758.21 7228.46 6362.14 6719.88 5978.82 5266.5 4523.88 4066.38 4948.98 5227.52 4414.48 4092.24 5163.02 7144.24 4906.82 5687.83 5004.23 6442.69 6320.71 4648.04 3464.83 6607.87 4721.32 3293.56 3163.78 5274.14 4903.82 5746.28 4082.47 5511.6 4338.08 4378.3 6134.99 4094.73 4989.56 4718.54 4440.57 5548.29 6766.43 2315.64 4390.41 5226.56 5599.49 5313.22 3905.51 3999.94 4864.22 3901.8 5759.46 5083.41 3921.08 4190.31 5678.96 5262.19 4244.9 6070.58 6034.41 5452.83 5130.91 5402.24 4519.22 6445.22 3844.9 3695.36 3963.86 3848.93 4306.11 5935.47 3402.32 5903.66 4528.49 5004.67 5365.89 5992.26 3960.8 5070.39 4980.85 5714.58 5110.45 5208.32 5248.77 4083.97 4607.02 5153.74 4528.09 3895.51 4165.81 6291.51 4128.98 5882.89 6246.22 4188.32 5246.61 4100.38 5344.77 4723.48 4899.11 5097.87 4278.07 7267.18 6256.02 5320.92 5269.18 4406.1 5034.59 4942.77 4263.33 4454.63 5080.18 5912.61 3279.1 4403.98 4560.84 4729.43 5776.57 4562.74 5683.26 5598.74 5139.5 7493.3 4814.55 3527.05 5698.77 2477.07 6413.11 4305.16 5092.28 4965.89 5659.95 4152.85 2908.7 4453.64 4517.73 5469.47 5660.16 3838.47 2588.37 6736.03 6235.57 3623.87 5916.16 6934.37 6113.95 4050.08 4097.57 5017.5 5563.79 6171.13 5511.88 4512.11 7055.42 5486.68 6048.86 4285.32 5490.43 5022.28 5197.52 4959.34 4948.5 4527.02 4531.14 5013.42 4564.34 3838.56 4871.44 5076.35 6020.48 6375.99 5200.05 5234.29 5313.66 5419.37 4466.03 4511.54 5409.33 5196.0 4923.9 4973.78 3329.99 3947.47 3296.27 5091.68 4713.25 4204.84 6243.0 6673.96 3556.85 3161.47 5441.96 3435.9 5174.89 4288.3 5370.52 4652.29 5774.81 3746.31 5498.32 5027.98 5346.27 6475.1 4969.21 2691.29 2845.98 4880.14 5289.52 5314.85 4305.43 5450.44 6510.17 5742.65 5592.32 5381.16 5565.13 6193.35 6086.96 5233.78 3701.27 5653.9 5046.21 4929.14 5894.61 3979.54 5304.13 5944.09 5833.06 4923.41 4497.31 5384.76 5529.42 5257.12 5243.43 4537.14 5551.9 3757.34 6415.61 4687.64 4419.71 5037.06 4541.8 5175.29 5842.56 5887.15 5412.31 3087.09 3423.15 4890.5 3981.07 5452.42 5328.22 6853.85 2395.5 3497.9 5941.61 5782.48 6248.6 5683.61 3836.45 5100.25 6894.26 4986.51 5339.38 5178.99 5383.07 4591.87 4790.78 4247.15 6552.22 5651.07 6248.81 5273.35 4091.8 2651.49 4645.58 5512.23 5275.32 5985.29 4898.94 4178.15 4613.31 4733.04 6119.09 5788.66 7531.29 5069.25 5048.89 5935.03 3991.03 6390.78 7435.25 6826.57 4788.87 4249.46 4495.87 3702.37 6022.72 4643.31 5527.33 6917.52 5402.21 4989.09 4982.31 3848.54 4307.48 5941.4 5331.02 4871.96 4863.23 4402.67 4470.61 4631.83 4384.88 6887.27 6008.49 4806.34 4287.53 5612.21 5945.08 4968.03 3306.14 5490.58 4863.79 4702.06 3830.46 6031.67 4689.15 6138.12 4428.78 4655.16 5409.66 4345.67 4765.72 4642.66 4039.91 4752.14 5329.59 4888.12 4950.97 5512.16 3197.63 4863.96 5191.08 5203.08 7480.41 5163.77 4488.85 3731.84 4901.07 5186.3 3436.15 4151.76 4020.4 3493.47 4596.75 4933.65 5443.58 4558.46 5805.86 4049.02 4470.4 5311.03 5255.12 6169.11 5615.35 4027.09 6422.84 4502.18 5379.09 4602.85 4962.77 5872.05 4853.02 6259.23 5181.4 5088.44 5670.2 4711.62 4247.23 4114.24 4268.65 4694.83 5509.42 4354.08 4256.43 5936.36 4520.62 3903.75 4755.47 4485.99 5127.16 5475.8 5314.69 6050.81 5543.46 5965.81 4750.17 5660.85 2330.66 3990.25 4177.19 3691.0 4752.51 3587.05 6229.37 6718.19 5282.91 4425.84 3797.33 7256.35 4800.69 6566.1 3555.86 6386.78 4996.99 4896.39 6081.14 5480.83 4220.46 4607.85 5128.57 6000.7 3169.67 5604.21 3361.92 6710.88 5395.14 3967.48 6213.04 6622.11 3685.13 6790.73 5251.4 3867.19 5857.79 5276.7 5036.58 6119.63 5411.02 4752.9 4287.16 5199.44 4062.5 4435.51 5374.07 4588.7 5683.95 3766.55 4579.69 3554.48 5010.2 6496.52 5005.85 4216.17 6484.17 4721.02 4254.37 3374.08 4031.78 6098.1 5708.99 5687.85 5346.68 5296.29 4611.53 4285.66 4896.11 5172.53 4135.62 5801.99 5534.94 5210.48 7644.38 7552.94 6101.92 5323.3 4998.21 4662.56 5166.79 5349.31 2976.22 3405.98 4649.22 5394.55 5094.52 4946.74 2682.24 5996.33 5928.32 5229.48 5475.7 4016.18 5526.75 5435.74 4244.99 5327.45 5560.26 6185.89 3997.96 4439.35 3460.94 6184.4 3758.07 4373.45 4236.14 4407.87 5733.62 5282.51 4460.92 5945.89 4042.28 4105.55 4340.76 6065.22 4221.28 4456.39 5514.84 3633.79 5421.53 5937.08 6070.3 5233.29 4312.56 4612.06 5204.04 4750.58 5926.11 6667.68 5235.11 5211.38 5089.62 4590.55 4741.26 5920.32 4255.85 5097.69 3988.3 6543.13 5149.72 5776.96 5464.25 5486.48 5301.47 4617.55 3645.12 5424.88 5415.85 8659.64 5469.13 6027.62 6123.03 5966.61 5711.11 4575.94 4938.72 3546.71 5768.57 5564.23 5950.04 4231.83 2435.33 6401.43 4558.47 5020.71 2681.29 5094.48 3872.61 4238.4 4318.48 6132.95 5266.22 4860.33 3685.13 6004.68 4051.34 3627.55 6239.84 4635.6 4256.67 3457.48 3931.07 6430.39 5417.15 3688.16 4681.72 3949.6 4945.39 3950.63 5415.19 6631.19 4612.62 3619.07 4275.57 4467.04 5626.61 6385.23 5817.25 2983.99 2614.4 5061.98 6363.92 6205.93 4923.24 5830.72 4419.61 3828.81 5309.98 4082.57 5255.18 5169.9 3004.16 4767.78 5235.17 4421.12 4779.5 4435.36 5254.49 6649.96 4303.19 5784.3 3914.2 4256.57 6088.68 4643.56 4135.08 5620.74 4778.82 6124.08 5467.84 5053.95 5266.01 5253.37 5767.9 6515.8 5869.4 3685.65 3701.16 4186.6 5895.77 4732.09 6136.49 4356.25 4757.74 4216.95 4209.49 5742.74 4244.21 4947.24 3875.05 6200.54 5148.58 4199.45 6599.66 4055.54 4233.8 5765.42 6098.95 4997.83 4893.49 5325.44 5021.88 5956.65 4498.25 4188.87 3735.24 6574.95 4074.48 6333.29 5731.57 5997.88 5839.71 5576.92 6408.83 3930.79 4004.35 5226.97 3312.06 5180.76 3361.26 6799.4 5278.36 5865.39 4427.28 6079.11 3082.32 3658.37 7440.72 5376.71 5703.6 6326.18 5661.62 4867.08 6648.68 4713.74 5407.78 4084.49 6632.99 4537.6 5147.36 7177.44 4563.46 6553.94 5726.66 5460.65 5652.0 5463.41 5225.33 4929.75 6045.22 4614.3 5134.39 3532.3 5769.98 5442.32 2221.99 3580.58 4863.01 5356.79 5657.36 3619.79 5029.47 6306.21 2978.76 2040.66 7016.27 5884.9 3876.21 5689.26 4916.22 6022.7 4940.84 5750.07 4809.67 6045.67 3946.28 3821.94 5439.9 5367.73 3540.11 4640.06 3456.47 4652.01 5421.64 7234.66 4207.54 4886.12 6419.12 4976.12 4817.16 5453.98 3991.42 4388.63 5102.75 4200.09 4597.29 5931.77 5151.21 5398.64 6817.57 4477.04 3614.96 3886.68 5703.74 5662.55 5737.92 4360.23 5365.24 5293.51 4763.96 5754.18 5008.63 3418.99 4480.95 4993.35 4409.63 5521.25 3661.9 5370.85 5949.46 3178.54 3776.94 4765.02 5629.39 4448.13 5070.29 4807.28 2261.36 5075.55 4266.03 5280.69 4220.03 6923.84 5227.59 5449.46 6179.96 5703.07 6113.54 4662.43 6260.79 3963.76 4043.66 5528.53 6799.88 3062.43 5990.52 5426.78 2967.38 4159.35 6477.91 4237.98 3091.67 6439.37 4081.97 5401.99 5580.92 5973.33 5067.46 3583.21 2511.46 4011.37 2775.69 4785.25 6519.43 5876.64 5424.46 4857.84 4908.49 4962.21 4858.44 3468.42 4673.35 4771.13 4992.42 5297.19 4351.38 4833.46 5933.7 7248.4 5280.12 4444.97 5984.81 3498.16 4409.27 4588.99 5471.74 3548.39 3673.28 4928.27 4858.51 3375.28 5625.65 4301.61 6107.89 4446.84 5660.55 5148.08 4834.87 5760.22 3672.21 5938.17 4795.43 5097.95 5108.06 3573.73 4693.52 6853.04 4745.43 5831.96 4747.55 3056.7 3755.95 6234.32 4586.19 4446.06 3450.93 4270.74 5132.68 6595.03 4558.15 6218.95 5222.16 4690.55 5107.23 5136.08 5558.68 4802.32 4010.57 4599.38 2684.03 5246.47 6157.04 4768.61 4522.21 5506.19 6719.94 4950.67 5832.37 6166.29 5453.6 5409.63 5294.77 4709.05 4630.82 6109.49 4813.08 5860.67 4540.86 5332.65 3764.1 4835.83 5604.35 6316.56 4332.87 6420.81 4715.58 4450.7 5151.52 5369.08 3101.75 4347.74 4009.62 5291.9 2081.58 6505.78 5461.55 3298.2 4270.15 6865.76 6449.64 6464.8 4684.44 4749.59 5799.69 3809.69 5571.72 3208.96 7051.9 4184.23 4144.57 5550.75 6834.41 6226.14 5466.33 3000.29 5721.05 4247.69 4209.31 4514.39 6242.79 4321.21 4344.34 3583.49 5052.84 4366.74 5297.16 3184.64 5206.33 5530.49 5653.03 3718.69 4514.79 2216.82 4509.89 4940.28 6752.75 5269.38 5607.3 2928.82 4222.4 4000.43 3420.08 4568.41 4912.04 4539.07 5464.68 2685.81 5591.76 4585.31 6625.18 5323.91 4570.98 5097.45 6293.89 2761.07 5737.75 4983.39 5366.52 3778.02 5533.72 5533.42 7132.12 3678.08 5518.57 4187.31 6191.29 3240.51 7422.36 4527.99 5161.01 4298.15 4628.4 6051.83 4642.93 5941.9 4263.16 3973.12 3077.84 6024.75 4497.78 5567.93 5987.42 4442.22 6451.33 5413.31 3012.99 6400.08 4743.59 5208.14 3317.83 4396.25 3763.05 5092.24 5549.49 5423.42 4518.04 4766.06 4874.18 5012.5 5435.19 7093.13 4953.1 5818.95 4093.99 3940.49 4406.05 4680.94 5828.35 5876.72 5236.43 5285.07 4680.14 4608.41 4187.94 5980.59 5021.77 3796.15 4801.8 7216.98 5271.02 5718.28 4601.74 5950.45 5713.03 5849.65 5134.67 4165.21 4215.0 4936.96 4603.5 4481.76 5452.78 5065.26 4304.41 6192.0 5885.28 6579.31 3004.34 5323.55 3022.6 4914.45 4811.76 4698.87 4661.03 5160.59 3624.7 4691.91 5262.35 4475.83 4255.34 4510.8 5889.35 5010.04 4394.56 4275.07 5825.38 4185.61 4047.87 5742.47 4917.99 6552.21 5417.8 5146.37 4836.16 5300.96 5151.11 5463.48 5730.33 5545.46 4376.7 4543.1 5190.61 8325.01 3764.06 4440.81 4523.39 5278.56 5434.47 6642.76 5829.22 5631.14 4243.79 5811.18 5433.65 4008.15 4887.76 4669.06 4811.32 4286.49 6184.88 5829.32 5551.95 3918.87 2275.45 4633.05 4901.2 6605.86 4383.56 4990.79 3562.79 4516.53 4122.92 3604.14 4452.54 5089.1 2711.19 5474.15 4028.32 4099.92 4884.59 3858.06 4511.7 4083.79 4304.63 5263.27 6300.92 4173.54 5599.29 6038.68 5046.12 4807.4 7013.17 3805.67 6506.86 5088.57 5580.34 3852.6 5775.31 4706.5 4647.67 5375.12 4356.36 4892.44 5578.94 7610.49 4286.17 3684.56 6028.09 5375.1 4172.6 5313.12 5351.56 3984.88 5318.53 4732.09 4320.42 4281.98 7165.9 5064.79 5344.83 5480.3 7509.24 4146.81 5896.26 5388.78 6101.13 4573.72 5099.21 6969.28 5636.4 4367.78 5698.96 4350.12 5227.02 5670.0 4232.16 5222.51 4344.51 5680.94 3834.43 3781.77 5581.55 5193.01 3474.5 6550.44 3860.83 6348.03 5732.27 4792.39 5146.37 6917.62 4013.38 4343.78 5263.3 3352.35 4909.65 6523.86 7693.4 4326.48 4437.07 3449.37 5491.9 6405.0 4659.16 5789.55 4909.31 6522.59 5711.62 4798.17 5166.79 5425.98 6479.39 2895.63 4997.91 5079.22 5381.54 5810.77 4714.83 7519.2 6355.68 4478.6 3953.55 4063.9 4469.54 4314.56 3928.53 5606.51 5740.65 3834.47 6349.67 6329.53 4590.01 6101.86 4227.41 5993.0 4803.57 5966.42 4110.59 3332.49 5354.66 4214.44 5378.23 4787.97 3746.36 6789.23 3989.7 4777.03 4246.61 5452.36 3804.5 6486.37 5498.42 3344.57 5220.76 7046.11 3427.63 4863.97 6342.48 5756.75 5599.7 4587.67 4163.74 3665.95 4296.69 4095.75 3319.67 3603.51 4298.45 5283.8 4076.59 6609.84 5135.96 6464.15 5658.37 4707.06 4972.17 6074.94 5491.37 4250.88 4222.77 3783.54 5268.38 3475.67 5527.23 4805.33 7038.89 3863.67 4814.12 5067.56 6137.8 6069.3 2735.53 5116.6 3747.03 2783.85 4356.49 4526.81 3994.07 4219.94 5907.46 4264.91 6740.71 5399.29 5971.22 6602.43 3568.28 5996.66 4405.42 2995.67 3598.08 4599.81 5698.23 7300.58 3608.06 6633.61 5217.95 4867.7 5484.36 4277.24 4075.28 5291.05 5161.1 4619.2 5166.41 5067.56 2596.96 5701.75 4350.15 4139.3 6541.45 4750.49 5078.31 5391.48 4923.43 5131.15 4847.14 3950.27 5116.66 3566.79 5374.67 4981.43 4741.28 5069.89 4215.2 4157.29 6813.72 5327.75 4609.02 4896.65 4638.18 4196.37 6448.66 4453.97 6945.98 5138.2 3503.41 5783.48 4449.98 4701.5 4504.35 4771.65 4840.44 5093.82 5951.81 3924.14 6918.35 4834.3 6238.32 6804.79 6471.42 5369.5 4428.14 5164.1 4124.49 4479.11 5714.25 6685.4 5699.53 4850.06 6332.01 7044.29 4234.18 7085.01 5980.95 6193.08 3862.77 5887.01 5168.35 5388.39 5335.47 3728.18 5633.61 5048.19 6799.23 4888.27 4592.15 6487.56 4854.11 5533.19 4998.22 5417.21 6104.26 5583.61 6063.64 4986.71 7382.3 4022.56 5522.21 3772.3 4855.01 6208.9 4923.57 3340.09 6061.63 2279.05 4829.35 8137.11 5484.32 6650.77 4067.96 4824.12 7104.73 6162.3 3272.75 4264.54 3516.27 7043.44 4263.78 4643.9 5228.75 6047.14 5009.83 5210.38 5717.8 3629.44 5003.78 3299.24 6246.56 4061.6 2603.64 5107.0 6212.15 6502.97 4783.07 4946.23 4852.58 6083.28 5211.6 3556.79 5806.31 5456.71 7317.04 6412.67 7001.83 5012.97 4036.91 5589.37 5439.49 6639.64 5212.43 5454.12 6348.54 4066.57 5642.35 6372.13 6357.47 5404.01 6016.19 5535.91 3230.13 6176.67 5325.96 5412.24 5016.02 4920.21 4581.37 4049.16 5851.61 3936.95 6153.94 6836.82 3858.17 4631.99 4740.98 3185.39 5128.77 7122.87 5797.36 4243.26 4153.84 5119.86 5089.26 5084.17 4901.44 3776.8 5096.43 6156.21 2460.79 4653.83 6171.71 3628.89 6589.82 4668.88 5027.43 5522.75 5867.64 4438.58 6059.93 5602.53 5073.02 6545.43 3472.91 6760.92 4989.2 4711.04 7144.05 4506.18 2970.9 6542.5 4383.47 5971.21 6318.23 4206.98 5156.76 6101.57 4891.38 4793.65 2949.12 5955.86 4532.89 4533.37 4848.46 5742.09 2779.99 2884.65 5887.38 6942.34 3658.05 5478.11 5526.31 5030.15 