# vtk DataFile Version 2.0
Time step 7
ASCII
DATASET UNSTRUCTURED_GRID
POINTS 5000 float
27712.3 224815.0 0
171836.0 226248.0 0
177749.0 226290.0 0
182956.0 225489.0 0
278871.0 226361.0 0
297322.0 226341.0 0
372021.0 224929.0 0
394012.0 226279.0 0
403596.0 225366.0 0
432524.0 225797.0 0
477088.0 225685.0 0
485859.0 225468.0 0
497601.0 225549.0 0
2396.51 227816.0 0
8337.12 227243.0 0
5964.37 230632.0 0
12439.3 227020.0 0
11012.6 231514.0 0
16775.7 226547.0 0
22243.6 227907.0 0
28451.6 231177.0 0
33108.3 227479.0 0
38084.4 228030.0 0
42604.8 228066.0 0
47500.0 228047.0 0
52137.1 228073.0 0
57021.2 226958.0 0
62763.5 227988.0 0
67994.7 228122.0 0
72688.8 227318.0 0
77500.0 228001.0 0
82500.0 227990.0 0
87418.4 227341.0 0
92500.0 228028.0 0
97233.5 228050.0 0
101333.0 227962.0 0
105999.0 227460.0 0
111908.0 227906.0 0
117823.0 228020.0 0
123302.0 228098.0 0
128316.0 228213.0 0
133400.0 227471.0 0
138097.0 228149.0 0
142500.0 228072.0 0
147500.0 228005.0 0
152501.0 227975.0 0
157575.0 227644.0 0
162532.0 227815.0 0
167032.0 227430.0 0
183460.0 230565.0 0
187424.0 227321.0 0
192500.0 228423.0 0
196131.0 227639.0 0
201769.0 226974.0 0
207661.0 227710.0 0
213009.0 227163.0 0
218139.0 228132.0 0
222491.0 228141.0 0
225846.0 227574.0 0
230424.0 227375.0 0
235814.0 228284.0 0
241172.0 226988.0 0
246494.0 229010.0 0
252652.0 226938.0 0
259013.0 227481.0 0
263749.0 228500.0 0
268736.0 227507.0 0
273934.0 227741.0 0
282034.0 229678.0 0
286333.0 227995.0 0
291723.0 228480.0 0
303636.0 227243.0 0
307760.0 229738.0 0
312125.0 227530.0 0
317926.0 228162.0 0
323243.0 228130.0 0
327583.0 228312.0 0
332208.0 227918.0 0
337225.0 227641.0 0
341028.0 228828.0 0
345930.0 227240.0 0
350771.0 229025.0 0
355382.0 228220.0 0
361910.0 226788.0 0
368004.0 228289.0 0
377031.0 226913.0 0
382620.0 227709.0 0
378883.0 231433.0 0
388128.0 226945.0 0
399138.0 228094.0 0
408544.0 226535.0 0
412499.0 228136.0 0
408302.0 230811.0 0
417500.0 228036.0 0
422656.0 226493.0 0
422187.0 231140.0 0
427280.0 227880.0 0
433275.0 231059.0 0
437537.0 228012.0 0
442187.0 227082.0 0
443146.0 231403.0 0
446337.0 226546.0 0
447509.0 230576.0 0
450733.0 227399.0 0
455276.0 227483.0 0
460270.0 227465.0 0
465828.0 227618.0 0
471660.0 226896.0 0
481379.0 228469.0 0
491670.0 227076.0 0
496845.0 231059.0 0
2265.5 233066.0 0
6784.07 235650.0 0
17221.0 232455.0 0
22922.6 233539.0 0
34903.5 232741.0 0
40273.1 233114.0 0
44400.6 233385.0 0
48188.0 232109.0 0
52500.0 233033.0 0
57950.4 232410.0 0
62813.4 233085.0 0
67505.3 232761.0 0
72191.8 232446.0 0
77500.0 233159.0 0
82116.1 232805.0 0
87880.1 232102.0 0
92500.0 233168.0 0
97204.8 232933.0 0
102467.0 232702.0 0
108268.0 232063.0 0
112500.0 233104.0 0
117500.0 233186.0 0
122500.0 233109.0 0
127713.0 232694.0 0
132482.0 233002.0 0
137520.0 233017.0 0
142766.0 232504.0 0
147018.0 232859.0 0
152028.0 232722.0 0
156962.0 231712.0 0
156294.0 236264.0 0
161391.0 232559.0 0
166606.0 232108.0 0
172899.0 231831.0 0
178302.0 231711.0 0
182236.0 235732.0 0
188530.0 231794.0 0
193507.0 232585.0 0
198197.0 232034.0 0
203929.0 232598.0 0
213695.0 231714.0 0
209363.0 232866.0 0
213287.0 236519.0 0
217657.0 233183.0 0
222092.0 233105.0 0
226876.0 231802.0 0
232240.0 232706.0 0
237756.0 233510.0 0
243356.0 233463.0 0
248386.0 233113.0 0
252605.0 233537.0 0
257194.0 232107.0 0
262333.0 232686.0 0
267210.0 232398.0 0
271694.0 231715.0 0
276916.0 232108.0 0
279881.0 236053.0 0
282797.0 233372.0 0
287500.0 233082.0 0
292786.0 233003.0 0
298199.0 231860.0 0
303047.0 232905.0 0
307484.0 233038.0 0
312501.0 233277.0 0
317499.0 233040.0 0
322485.0 232605.0 0
322512.0 236609.0 0
327500.0 233063.0 0
332500.0 233135.0 0
337679.0 232536.0 0
341418.0 236110.0 0
343269.0 231888.0 0
347689.0 232413.0 0
352648.0 232965.0 0
356076.0 236482.0 0
361541.0 232100.0 0
357869.0 232643.0 0
365221.0 231999.0 0
366571.0 236089.0 0
373022.0 231700.0 0
382061.0 232589.0 0
384397.0 235935.0 0
388281.0 232035.0 0
393461.0 232366.0 0
398045.0 232777.0 0
402922.0 231556.0 0
412786.0 232086.0 0
409204.0 236444.0 0
417455.0 232528.0 0
428017.0 232879.0 0
424044.0 235997.0 0
437500.0 233076.0 0
448117.0 235652.0 0
451877.0 231911.0 0
457095.0 232265.0 0
462426.0 233394.0 0
466649.0 232180.0 0
470221.0 233387.0 0
475204.0 232187.0 0
480832.0 233738.0 0
486631.0 231773.0 0
492118.0 233995.0 0
2238.62 238672.0 0
8062.78 241486.0 0
11869.1 237486.0 0
16329.1 237668.0 0
17677.4 241519.0 0
20499.2 237540.0 0
26955.6 238002.0 0
32571.8 237824.0 0
38139.2 237598.0 0
42851.4 237798.0 0
47501.1 236829.0 0
49065.9 241588.0 0
51741.6 238512.0 0
56488.7 238022.0 0
62045.4 238090.0 0
67615.4 237607.0 0
73599.5 238032.0 0
78237.2 238354.0 0
81981.4 237532.0 0
86986.1 237624.0 0
92531.5 237919.0 0
97545.3 237453.0 0
102630.0 238464.0 0
107935.0 236836.0 0
112500.0 238024.0 0
116764.0 237841.0 0
120864.0 237645.0 0
125891.0 237078.0 0
123386.0 241649.0 0
131186.0 238767.0 0
136472.0 238656.0 0
141039.0 236648.0 0
146355.0 237745.0 0
151875.0 239368.0 0
161738.0 238250.0 0
166551.0 240090.0 0
170059.0 236695.0 0
176354.0 237512.0 0
182221.0 241209.0 0
188102.0 237963.0 0
194307.0 237594.0 0
200020.0 237101.0 0
208090.0 237689.0 0
204282.0 238150.0 0
217709.0 238136.0 0
222572.0 237383.0 0
222232.0 241657.0 0
226949.0 236798.0 0
232489.0 238170.0 0
237518.0 237936.0 0
237637.0 241287.0 0
241851.0 238566.0 0
246944.0 237244.0 0
251905.0 238459.0 0
257645.0 236860.0 0
255949.0 241637.0 0
262632.0 237470.0 0
260410.0 241299.0 0
267402.0 236864.0 0
266420.0 241575.0 0
272957.0 236999.0 0
278357.0 241554.0 0
283575.0 238309.0 0
287237.0 238388.0 0
288735.0 241613.0 0
291077.0 237386.0 0
296786.0 236932.0 0
302267.0 238150.0 0
307718.0 237469.0 0
313224.0 238564.0 0
318231.0 237734.0 0
326857.0 238376.0 0
336530.0 237213.0 0
331902.0 238286.0 0
339828.0 241514.0 0
346829.0 236808.0 0
351908.0 237806.0 0
361294.0 236798.0 0
357423.0 240428.0 0
366725.0 240775.0 0
371191.0 237843.0 0
377742.0 237359.0 0
382820.0 241431.0 0
392440.0 237212.0 0
388410.0 239084.0 0
397230.0 237145.0 0
402849.0 237780.0 0
414339.0 239016.0 0
418979.0 237249.0 0
427684.0 238893.0 0
432204.0 236697.0 0
437255.0 237642.0 0
442222.0 236622.0 0
446716.0 240752.0 0
453959.0 237375.0 0
450989.0 241553.0 0
458813.0 238214.0 0
462925.0 237965.0 0
467500.0 238187.0 0
472395.0 236701.0 0
472792.0 241630.0 0
477808.0 237644.0 0
482678.0 238413.0 0
487553.0 239503.0 0
491549.0 238051.0 0
496616.0 237675.0 0
2182.12 243086.0 0
13375.3 242091.0 0
11888.8 245861.0 0
17106.7 246676.0 0
22345.9 241934.0 0
26904.7 243878.0 0
30123.5 246634.0 0
31990.9 242106.0 0
37495.8 242791.0 0
43168.4 242856.0 0
48257.1 246763.0 0
53807.2 243154.0 0
59161.4 242696.0 0
63560.6 242414.0 0
68035.2 243272.0 0
72583.2 242919.0 0
77076.5 242306.0 0
82144.2 242551.0 0
87338.2 242796.0 0
92279.9 243232.0 0
97755.6 242800.0 0
102770.0 244122.0 0
107712.0 242328.0 0
113075.0 242371.0 0
118112.0 242335.0 0
127500.0 243183.0 0
132651.0 243614.0 0
137716.0 242585.0 0
142517.0 242791.0 0
147958.0 242385.0 0
147003.0 246669.0 0
156817.0 241770.0 0
153348.0 244055.0 0
160424.0 243053.0 0
164439.0 243781.0 0
167076.0 246633.0 0
170830.0 242728.0 0
177027.0 244078.0 0
186630.0 243580.0 0
191646.0 243115.0 0
197199.0 242363.0 0
203019.0 242284.0 0
208743.0 243989.0 0
214386.0 242174.0 0
218789.0 243245.0 0
216389.0 246771.0 0
227704.0 242321.0 0
234130.0 242647.0 0
237950.0 246011.0 0
242003.0 243154.0 0
246497.0 242442.0 0
251573.0 243693.0 0
262672.0 244893.0 0
271807.0 243291.0 0
284336.0 243115.0 0
292958.0 243320.0 0
298912.0 243258.0 0
303951.0 243402.0 0
307500.0 243227.0 0
312211.0 243035.0 0
316276.0 242486.0 0
321095.0 241987.0 0
325904.0 243455.0 0
329956.0 242117.0 0
334437.0 244060.0 0
346105.0 243062.0 0
352854.0 243380.0 0
361763.0 242780.0 0
367158.0 245682.0 0
371920.0 243470.0 0
377866.0 244743.0 0
387335.0 243240.0 0
392999.0 243608.0 0
399469.0 242888.0 0
408041.0 241759.0 0
404268.0 242767.0 0
403097.0 246771.0 0
412297.0 243475.0 0
408180.0 246688.0 0
416874.0 242809.0 0
421328.0 243791.0 0
425711.0 242545.0 0
431101.0 242894.0 0
437302.0 241836.0 0
436003.0 246738.0 0
442019.0 242222.0 0
448155.0 246363.0 0
455676.0 243019.0 0
461461.0 242803.0 0
467224.0 242699.0 0
479018.0 243119.0 0
484865.0 243602.0 0
489147.0 244279.0 0
492147.0 241901.0 0
496768.0 244314.0 0
1527.25 247864.0 0
2728.42 251922.0 0
7114.29 247763.0 0
12577.7 250376.0 0
23007.1 247299.0 0
28580.1 250688.0 0
34773.4 247431.0 0
39669.0 246832.0 0
38955.8 251646.0 0
43476.1 248861.0 0
52937.6 248947.0 0
57126.1 247073.0 0
63014.6 247186.0 0
68293.0 248446.0 0
73216.4 247000.0 0
72090.4 250890.0 0
78124.2 247494.0 0
83414.1 247542.0 0
88217.5 247646.0 0
92500.0 248091.0 0
97331.1 248214.0 0
101288.0 248139.0 0
105688.0 247864.0 0
111361.0 246990.0 0
111117.0 251836.0 0
116690.0 247611.0 0
122136.0 246853.0 0
126925.0 247586.0 0
131243.0 248013.0 0
136588.0 247144.0 0
142209.0 248482.0 0
151776.0 248633.0 0
157906.0 247584.0 0
163700.0 248267.0 0
170986.0 248725.0 0
176721.0 250355.0 0
182867.0 248016.0 0
193623.0 247231.0 0
189128.0 247989.0 0
198205.0 248222.0 0
203139.0 247382.0 0
202553.0 251868.0 0
207357.0 249360.0 0
212140.0 248216.0 0
221245.0 246884.0 0
226327.0 248803.0 0
232037.0 247266.0 0
236195.0 251029.0 0
242901.0 247704.0 0
248102.0 247581.0 0
252942.0 247809.0 0
257768.0 246826.0 0
262892.0 250460.0 0
267642.0 247451.0 0
272713.0 249171.0 0
278467.0 248227.0 0
283560.0 247696.0 0
282094.0 251626.0 0
288820.0 246932.0 0
293474.0 247900.0 0
297487.0 249291.0 0
302639.0 247708.0 0
301882.0 251622.0 0
307223.0 248065.0 0
312048.0 247766.0 0
317122.0 246895.0 0
322454.0 247546.0 0
331128.0 247681.0 0
327320.0 248307.0 0
341423.0 246958.0 0
337079.0 248033.0 0
346901.0 248914.0 0
351820.0 249077.0 0
355767.0 251248.0 0
357895.0 246882.0 0
362956.0 247771.0 0
370327.0 249009.0 0
374678.0 249050.0 0
383255.0 247366.0 0
383572.0 251492.0 0
387389.0 251872.0 0
388204.0 247390.0 0
392255.0 250038.0 0
398014.0 248855.0 0
411986.0 251253.0 0
414581.0 247060.0 0
[...]
POINT_DATA 5000
SCALARS Radius float 1
LOOKUP_TABLE default
5782.6 6044.04 5415.48 5120.0 5580.89 6810.52 5529.52 6756.95 6324.23 5191.63 4861.06 5320.28 4797.52 4796.58 3979.26 4298.67 3471.03 5960.66 5253.55 5820.48 7034.11 4862.21 5113.21 3929.19 4107.03 4478.15 5379.87 5925.6 4501.51 4792.73 4736.58 4931.38 3485.26 4329.05 4151.94 4049.23 5337.48 6124.89 5708.81 5252.48 4780.03 5495.39 3996.0 3856.1 4665.12 3383.4 4133.88 4834.9 3850.77 5085.53 3863.18 2356.98 4998.37 6182.6 5492.18 5258.36 5061.3 3642.12 3163.97 5812.43 5122.66 5906.14 5484.19 7513.1 5254.28 4436.4 5733.48 4672.91 3588.44 5645.7 5176.86 5840.26 3672.51 6110.27 5561.06 5073.35 3615.22 5670.04 4380.59 3589.27 6716.79 3607.45 5759.91 7613.27 4951.03 5255.32 6037.08 4523.7 5096.78 4129.43 3843.58 3320.52 4727.24 4194.5 4270.53 5082.47 5344.25 5445.87 4593.7 4150.99 4704.72 4216.92 4177.94 4742.68 4344.58 5634.83 5495.84 6268.1 5374.51 6739.08 6326.39 4569.12 5873.69 6608.73 5011.84 6261.42 4502.5 3771.48 4043.57 4271.69 5681.38 4138.42 3708.04 5513.6 3240.09 4556.36 6082.81 3191.99 4685.34 5601.05 4929.8 3586.91 3103.0 3554.9 4015.92 5542.21 4487.31 3936.02 4044.71 5980.74 4094.62 5109.54 4927.02 5546.39 5325.36 5484.83 5538.89 5351.6 4730.36 4715.55 5867.73 3951.75 5013.56 5701.86 4499.64 4375.68 5542.27 5054.98 6030.06 5170.02 3557.27 4927.31 4688.68 4402.52 4517.56 4182.53 5903.42 3968.64 3955.56 3761.32 4118.05 4366.19 5553.16 2938.66 4940.78 4231.61 4008.92 4003.05 3942.53 3379.84 4827.82 5227.21 3997.1 3260.67 5123.52 4091.31 3038.33 4392.68 4333.2 4295.38 7199.21 2240.39 5923.5 5091.39 5293.9 3912.37 6142.94 4602.25 6691.39 4790.08 4763.45 5344.0 3815.26 6048.7 4571.7 5896.46 5022.8 3784.5 3780.23 6481.79 5224.12 7042.12 4819.73 4471.58 6098.14 4962.09 3999.48 4203.26 4359.62 6946.21 2586.12 5433.8 4011.77 5499.11 4527.08 3633.87 5922.5 5198.77 5987.17 6013.14 2765.2 4901.41 5110.37 5664.98 4382.74 5927.43 4651.28 4384.42 3693.63 4516.43 5481.78 4948.92 5637.59 4937.14 5043.05 5816.2 5693.81 6483.19 3829.13 5945.65 6759.9 5418.62 7021.47 5416.38 6059.59 4955.55 2720.68 3563.63 4238.81 4345.55 4468.59 5885.03 2837.58 3871.88 5325.02 5200.76 5017.13 4862.64 5279.39 5185.34 3673.74 4432.58 5205.43 6684.56 7447.37 4688.67 2635.86 4385.06 5292.64 6166.5 5065.13 5936.02 5305.17 4861.08 5390.22 4805.87 4712.33 6038.78 5697.78 4667.36 6372.62 4254.17 5090.24 5615.42 7565.34 5530.87 4612.68 4281.49 4973.83 6342.25 4840.84 5135.69 4020.32 6045.46 4245.72 5908.1 4541.21 6133.92 4164.68 3719.84 4178.4 3095.48 4166.08 5762.59 4123.6 4850.14 5163.55 3382.7 6817.32 4319.79 4472.17 3637.61 6222.42 5188.81 4730.41 3745.84 6057.22 5062.71 6125.34 5965.78 5347.48 4850.01 3970.25 5147.67 3979.82 5011.31 5138.31 5264.06 4659.59 6327.9 4048.37 6355.42 4362.19 5690.56 3115.91 4493.48 3307.12 5924.89 4002.16 4778.34 4174.52 4138.16 3486.22 4684.5 3091.3 6230.49 6458.82 4601.27 5493.32 5740.68 5926.61 6051.14 5836.15 3261.21 4195.44 6704.06 3653.41 5600.93 3856.01 5246.2 4390.66 4827.23 6116.18 4924.6 4733.32 7184.19 2899.43 2924.37 3867.67 4290.3 5399.73 4660.72 3888.21 5891.05 6902.81 6644.76 5629.19 4786.6 5740.84 6445.94 4310.18 7134.64 5978.9 4187.56 3629.62 4716.19 4997.27 5514.76 4301.06 4877.67 4290.14 6562.18 4156.38 6006.16 5316.75 7055.53 5669.65 5934.22 5624.49 7092.87 4666.81 3703.1 3954.91 6471.55 2965.01 5499.39 6643.85 5501.93 5654.31 4938.74 5690.26 4156.2 5607.14 4497.59 4374.35 4810.12 5643.58 5215.05 4292.06 3821.72 5577.04 5006.58 4602.86 3688.8 4548.16 3369.23 5449.18 5492.26 4220.88 5244.78 5762.84 3937.74 4749.8 6084.86 5478.92 5551.36 6894.71 4414.54 5789.98 6138.47 7054.71 3641.64 5489.43 5747.75 4277.89 4727.62 5054.25 4796.33 5539.32 5360.19 6496.85 4794.96 4874.39 5541.59 4124.71 5728.85 6337.56 4911.47 5803.39 5863.59 4381.97 4024.3 6257.19 3255.82 5242.73 2812.98 4737.14 4065.69 5603.15 4695.45 6052.7 3921.18 3798.62 5308.1 3666.57 4907.89 4937.02 4073.93 5655.21 4645.41 4433.59 4320.28 5542.14 2739.94 4931.53 4218.06 5480.13 6308.71 6405.76 3456.98 3498.2 5105.16 3066.13 5448.61 4302.5 6009.88 5013.67 5826.04 5339.78 4143.78 4970.88 4763.66 4636.5 4940.42 5923.4 5085.71 5644.82 6343.14 5463.38 5945.21 5750.71 5696.88 4831.47 3923.03 5975.63 5252.34 6396.74 4138.46 2775.04 4986.77 6898.19 6318.18 5586.81 3948.17 4551.24 4621.75 5358.59 4515.71 6519.71 6640.13 5082.6 5810.84 4230.54 5094.44 3748.24 4655.49 4467.94 4933.21 4850.81 6038.14 2540.31 6029.66 5527.54 5573.7 5697.4 4270.95 4055.8 7325.81 5280.17 6425.26 5143.58 6186.19 4839.34 5083.08 2980.99 6834.49 5525.39 3998.5 5938.34 5380.13 6394.38 5555.28 5169.36 4686.65 5834.74 5556.96 5788.23 5581.75 6392.01 3599.45 6730.19 4907.06 3735.44 5163.9 6043.3 5952.75 6332.36 6122.55 6155.31 4223.33 5911.67 3323.28 6695.82 5835.78 5794.24 4678.38 5050.65 4827.33 5260.34 5206.48 5513.57 5729.23 5226.0 3365.82 4538.95 5965.15 4780.2 6090.91 4946.42 5019.93 5081.78 6116.33 6263.44 5774.97 5462.21 5470.77 4643.85 4004.04 6062.05 4289.17 5564.02 4274.61 2965.79 4410.55 6035.6 5137.34 4481.53 5330.45 4581.13 3856.59 4219.07 3610.4 5413.79 6387.01 5367.52 3092.35 4322.15 5210.03 4714.54 3629.96 5478.47 5351.39 6142.37 6061.47 5375.47 4566.18 4723.12 5120.49 5201.36 5262.61 6302.8 5409.61 6038.2 4005.44 5206.78 5555.88 6732.43 5028.96 3866.16 6362.12 4484.76 4840.01 4511.82 5611.2 7933.0 4455.12 5173.87 4894.16 5711.87 5118.27 4941.22 5932.23 5791.61 3369.13 4479.66 3043.85 5367.2 5461.13 4726.76 5839.13 5495.68 5489.34 5002.48 5708.14 5537.72 3920.42 8332.24 4553.56 5329.64 6049.55 5709.62 4127.74 2476.04 5133.97 3942.07 7443.72 3937.08 5371.02 4709.35 6586.45 4373.3 4750.78 4163.5 5724.64 5078.86 5100.1 3561.29 4963.34 3295.83 4459.28 4260.92 6250.23 5960.56 4118.84 4020.95 6313.06 3474.39 3493.7 6470.3 4200.03 5082.74 6915.83 6072.45 7099.43 5526.14 5198.29 5423.0 5077.33 4746.52 6338.89 6202.55 5025.39 5893.5 4547.19 3320.11 5030.91 6022.17 5119.37 3982.23 6163.38 3459.9 4853.39 4964.09 4809.42 5024.9 4306.53 5659.17 5094.81 5972.06 5713.22 5861.71 4359.04 3183.98 3794.63 4524.28 3778.1 5152.36 5826.64 4220.65 6820.42 4816.2 6321.41 4896.52 4751.02 3372.79 5184.56 5282.64 4715.72 4669.66 4808.52 5046.33 4764.96 5607.24 5053.92 6352.26 3847.38 3818.59 4863.72 4143.08 6623.85 4262.82 5102.36 4342.9 5065.11 5069.84 4051.44 4241.89 5054.74 5941.72 5991.09 5126.91 6600.94 4788.58 6155.1 5876.71 6262.72 5029.78 6515.84 4888.6 2990.77 4739.14 4918.77 4371.99 4219.78 4188.3 3885.86 5235.29 4479.94 5453.3 6413.02 4863.27 5862.86 6049.79 5374.98 4719.7 6939.12 4735.33 5411.85 5092.37 6444.77 6314.07 4287.63 5315.4 6449.45 3975.31 3689.45 3824.16 5125.78 5572.95 3868.18 4373.47 6723.16 5584.06 7111.16 3817.13 5507.24 6851.54 4583.31 4503.89 5806.08 5243.29 4997.27 4093.08 4449.22 5543.27 4717.05 5287.2 6135.57 5998.38 4312.67 5423.8 4270.24 4989.15 5017.78 5015.69 6175.81 4727.24 6677.09 4305.57 6959.81 4829.35 5201.67 4424.7 4089.76 4754.05 5526.55 3192.41 6084.93 5215.15 4987.87 3315.57 5804.71 5020.12 5727.3 4242.52 5281.28 5356.51 4277.88 3057.03 4087.15 7500.97 3948.23 5228.18 5787.31 3927.99 5868.82 4050.9 4978.31 4099.77 4981.9 4656.78 4537.32 3600.43 4906.82 5131.24 5196.67 5004.23 6496.67 5474.8 6607.87 3664.11 5117.47 4925.63 5882.65 4434.19 5187.7 4623.61 6261.75 5177.64 4255.31 6134.99 4094.73 4407.9 3492.19 4584.5 4440.57 5122.63 4703.08 6345.13 5274.19 5516.95 4406.4 4413.85 4844.57 3999.94 4027.46 4470.98 5776.37 4516.28 3921.08 4190.31 3627.82 4044.45 5262.19 5344.43 5045.38 5350.88 5372.61 3686.21 5402.24 6480.17 5023.15 4377.07 5101.59 3813.22 5570.3 4336.42 4306.11 7589.94 3130.65 5628.24 5856.11 3327.49 4109.88 4234.94 4562.29 5013.13 4980.85 5080.66 3417.33 4926.42 4164.13 4642.34 4520.1 4947.52 5153.74 5874.89 4293.03 5813.4 4389.21 3791.79 4128.98 4925.44 6246.22 4951.47 4307.28 3697.96 4739.42 4723.48 5538.93 4899.11 2631.9 4745.45 6255.18 4668.71 4758.21 5269.18 7228.46 6362.14 6719.88 5978.82 5266.5 4523.88 4066.38 4403.98 4948.98 5227.52 4414.48 4729.43 4092.24 5163.02 7144.24 5598.74 5687.83 6442.69 6320.71 4648.04 3464.83 4721.32 4305.16 3163.78 3293.56 5092.28 5274.14 4903.82 5746.28 4082.47 5511.6 4453.64 4338.08 4378.3 4989.56 4718.54 5548.29 6766.43 2315.64 5916.16 4390.41 5226.56 5599.49 5313.22 4097.57 3905.51 5017.5 4864.22 3901.8 5759.46 5083.41 5678.96 4244.9 6048.86 6070.58 4285.32 6034.41 5452.83 5130.91 4948.5 4519.22 6445.22 3844.9 3695.36 4564.34 3963.86 4871.44 3848.93 5076.35 6020.48 5935.47 3402.32 5903.66 4528.49 5004.67 5365.89 5992.26 3960.8 4511.54 5070.39 5714.58 5110.45 5208.32 5248.77 3296.27 4083.97 4713.25 4607.02 3895.51 4528.09 4165.81 5441.96 6291.51 5174.89 5882.89 4188.32 5246.61 4100.38 3746.31 5344.77 5027.98 5097.87 4278.07 7267.18 6256.02 5320.92 4305.43 4406.1 5034.59 4942.77 4263.33 5080.18 4454.63 5912.61 3279.1 6193.35 4560.84 6086.96 5233.78 5776.57 4562.74 5683.26 5139.5 7493.3 4814.55 3527.05 5698.77 2477.07 4497.31 6413.11 5529.42 5257.12 4965.89 5659.95 4152.85 2908.7 6415.61 4517.73 4687.64 5469.47 4419.71 5660.16 3838.47 2588.37 6736.03 6235.57 3623.87 3087.09 6934.37 6113.95 4050.08 5328.22 5563.79 6171.13 5511.88 4512.11 7055.42 5486.68 5100.25 5490.43 5022.28 5197.52 4959.34 5383.07 4527.02 4531.14 5013.42 3838.56 6552.22 5651.07 6375.99 5200.05 5234.29 5313.66 5419.37 5275.32 4466.03 5409.33 4898.94 5196.0 4923.9 4973.78 3329.99 3947.47 5091.68 4204.84 6243.0 6673.96 3556.85 3161.47 3435.9 6390.78 4288.3 5370.52 4788.87 4652.29 4495.87 5774.81 6022.72 5498.32 5527.33 5346.27 6475.1 4969.21 2691.29 2845.98 4880.14 5289.52 5314.85 5941.4 5450.44 6510.17 5742.65 5592.32 5381.16 5565.13 4470.61 3701.27 5653.9 5046.21 4929.14 5894.61 3979.54 5304.13 5944.09 5833.06 4923.41 5384.76 6138.12 4428.78 5243.43 4537.14 4345.67 5551.9 3757.34 4642.66 5329.59 4888.12 5037.06 4541.8 5175.29 3197.63 5842.56 5887.15 5412.31 7480.41 3423.15 4890.5 3981.07 5452.42 5186.3 6853.85 3497.9 2395.5 5941.61 5782.48 6248.6 3836.45 5683.61 5805.86 6894.26 4986.51 5339.38 5178.99 5615.35 4591.87 4790.78 6422.84 4247.15 4502.18 4602.85 6248.81 5872.05 5273.35 4091.8 4645.58 2651.49 5181.4 5512.23 5670.2 5985.29 4247.23 4178.15 4613.31 4733.04 6119.09 5788.66 7531.29 5069.25 3903.75 5048.89 4755.47 5935.03 3991.03 5475.8 5314.69 7435.25 6826.57 4249.46 5965.81 3702.37 4643.31 6917.52 5402.21 4989.09 6718.19 4982.31 4307.48 3848.54 4425.84 5331.02 4871.96 4863.23 4402.67 4631.83 4996.99 4384.88 6887.27 6008.49 4220.46 4806.34 4287.53 5612.21 5945.08 3169.67 4968.03 3306.14 5490.58 5395.14 4863.79 4702.06 3830.46 6031.67 4689.15 4655.16 5409.66 3867.19 4765.72 4039.91 4752.14 5276.7 6119.63 4950.97 5512.16 4863.96 5191.08 5203.08 5374.07 5163.77 4588.7 4488.85 3766.55 3731.84 4579.69 4901.07 3554.48 6496.52 3436.15 5005.85 4151.76 4020.4 3493.47 4721.02 4596.75 4933.65 5443.58 4558.46 4049.02 4470.4 5311.03 5255.12 6169.11 4027.09 5801.99 5379.09 5210.48 4962.77 4853.02 6259.23 5088.44 4711.62 4114.24 4268.65 5349.31 4694.83 4649.22 5509.42 4354.08 5094.52 4256.43 5936.36 2682.24 4520.62 5229.48 5475.7 4485.99 5127.16 5435.74 4244.99 6050.81 5543.46 6185.89 3997.96 4750.17 5660.85 3460.94 2330.66 3990.25 4177.19 3691.0 4752.51 3587.05 6229.37 4236.14 4407.87 5282.91 3797.33 7256.35 4800.69 6566.1 3555.86 6386.78 4456.39 4896.39 6081.14 5480.83 4607.85 5128.57 6000.7 5604.21 3361.92 4750.58 6710.88 3967.48 6213.04 5235.11 6622.11 3685.13 4590.55 6790.73 5251.4 5097.69 5857.79 6543.13 5149.72 5036.58 5464.25 5411.02 4752.9 4287.16 5199.44 4062.5 4435.51 5683.95 6027.62 5010.2 4216.17 6484.17 4938.72 4254.37 3374.08 4031.78 6098.1 5708.99 5687.85 5346.68 5296.29 4611.53 4285.66 4896.11 5094.48 5172.53 3872.61 4135.62 5534.94 7644.38 7552.94 6101.92 5323.3 4998.21 4635.6 4662.56 5166.79 2976.22 3405.98 5394.55 4681.72 4946.74 5996.33 5928.32 5415.19 4612.62 4016.18 3619.07 5526.75 4275.57 6385.23 5327.45 5560.26 6363.92 6205.93 4439.35 5830.72 6184.4 3758.07 3828.81 4373.45 4082.57 5733.62 5169.9 5282.51 4460.92 5945.89 4042.28 4105.55 4421.12 4340.76 5254.49 6065.22 4221.28 4303.19 5514.84 3633.79 5421.53 3914.2 5937.08 6070.3 4135.08 5233.29 4778.82 4312.56 4612.06 5204.04 5053.95 5926.11 6667.68 5767.9 5211.38 5089.62 5869.4 4741.26 5920.32 4255.85 4732.09 3988.3 6136.49 4356.25 4216.95 5776.96 5486.48 5301.47 4617.55 3645.12 5424.88 5415.85 8659.64 5469.13 4233.8 5765.42 6123.03 5966.61 5711.11 4575.94 5021.88 3546.71 5956.65 5768.57 5564.23 5950.04 4231.83 2435.33 6401.43 4074.48 4558.47 5020.71 2681.29 5997.88 5839.71 4238.4 5576.92 4318.48 6132.95 5266.22 4860.33 3685.13 6004.68 4051.34 3361.26 6799.4 3627.55 6239.84 4256.67 5865.39 3457.48 4427.28 3931.07 6079.11 6430.39 5417.15 3688.16 3949.6 4945.39 6326.18 3950.63 5661.62 6631.19 6648.68 4467.04 5626.61 5817.25 2983.99 2614.4 5061.98 4537.6 4923.24 4419.61 7177.44 5309.98 6553.94 5255.18 5460.65 3004.16 4767.78 5235.17 5225.33 4779.5 4929.75 4435.36 6649.96 5134.39 5784.3 4256.57 5442.32 6088.68 4643.56 4863.01 5620.74 6124.08 5467.84 5266.01 5253.37 6515.8 3685.65 3701.16 4916.22 4186.6 5895.77 5750.07 4757.74 6045.67 4209.49 5742.74 3821.94 4244.21 4947.24 3875.05 3540.11 6200.54 5148.58 4652.01 4199.45 7234.66 6599.66 4055.54 6098.95 4997.83 4893.49 5325.44 5102.75 4597.29 4200.09 4498.25 5931.77 4188.87 5151.21 3735.24 6574.95 6333.29 4477.04 5731.57 6408.83 5365.24 3930.79 5226.97 4004.35 3312.06 5754.18 5180.76 3418.99 4480.95 5278.36 4409.63 5521.25 3661.9 3082.32 5370.85 5949.46 3658.37 7440.72 5376.71 5703.6 4807.28 4867.08 4266.03 5280.69 4713.74 4220.03 5407.78 4084.49 5449.46 6179.96 6632.99 6113.54 5147.36 6260.79 3963.76 4563.46 6799.88 3062.43 5726.66 5426.78 5652.0 5463.41 4159.35 4237.98 6439.37 6045.22 4614.3 3532.3 5769.98 5067.46 2221.99 3580.58 4011.37 2775.69 5356.79 4785.25 5657.36 3619.79 5029.47 6306.21 2978.76 2040.66 7016.27 5884.9 3876.21 4673.35 5689.26 4992.42 6022.7 4940.84 4833.46 4809.67 7248.4 5280.12 3946.28 5984.81 5439.9 3498.16 5367.73 4409.27 4640.06 3456.47 5471.74 5421.64 3548.39 4858.51 4207.54 4886.12 6419.12 4976.12 4817.16 5453.98 3991.42 5148.08 4388.63 4834.87 5760.22 5938.17 4795.43 5398.64 6817.57 3614.96 3886.68 5703.74 5662.55 5737.92 3056.7 3755.95 4360.23 5293.51 4763.96 4446.06 3450.93 5008.63 5132.68 6595.03 4993.35 6218.95 5222.16 5107.23 5136.08 3178.54 5558.68 3776.94 4765.02 5629.39 4448.13 2684.03 5070.29 4768.61 2261.36 5075.55 6923.84 5227.59 6166.29 5453.6 5703.07 5294.77 4662.43 4630.82 4043.66 5528.53 4540.86 5990.52 4835.83 2967.38 5604.35 6477.91 3091.67 4081.97 5401.99 5580.92 5973.33 3583.21 4347.74 2511.46 5291.9 4009.62 6505.78 5461.55 6519.43 5876.64 5424.46 4857.84 4908.49 4962.21 4684.44 4858.44 3468.42 3809.69 4771.13 5297.19 4351.38 5550.75 5933.7 5466.33 4444.97 5721.05 4247.69 4514.39 4588.99 4321.21 4344.34 3673.28 4928.27 3583.49 3375.28 4366.74 5625.65 4301.61 3184.64 6107.89 4446.84 5660.55 3718.69 4514.79 3672.21 2216.82 4509.89 5269.38 5097.95 5108.06 3573.73 4693.52 4000.43 6853.04 4745.43 3420.08 5831.96 4539.07 4747.55 5464.68 6234.32 5591.76 4585.31 4586.19 6625.18 5323.91 4270.74 6293.89 4558.15 4983.39 5366.52 4690.55 5533.72 5533.42 4802.32 4010.57 4599.38 5246.47 6157.04 6191.29 4522.21 7422.36 5506.19 5161.01 6719.94 4950.67 5832.37 4642.93 5409.63 4263.16 4709.05 3077.84 6024.75 6109.49 4813.08 5860.67 5332.65 3764.1 6451.33 5413.31 6316.56 4332.87 6420.81 4743.59 5208.14 4715.58 3317.83 4450.7 5151.52 5369.08 3101.75 4518.04 4766.06 2081.58 4874.18 5435.19 3298.2 4270.15 6865.76 6449.64 6464.8 4406.05 4749.59 4680.94 5799.69 5571.72 5236.43 3208.96 5285.07 7051.9 4184.23 4608.41 4144.57 5980.59 6834.41 6226.14 3000.29 4209.31 5718.28 6242.79 5950.45 5713.03 5849.65 5052.84 4165.21 5297.16 4936.96 5206.33 5530.49 5653.03 6192.0 4940.28 6752.75 5885.28 3004.34 5607.3 3022.6 2928.82 4811.76 4914.45 4222.4 4698.87 4568.41 4912.04 3624.7 4691.91 4475.83 2685.81 4510.8 5889.35 5010.04 4570.98 5097.45 5825.38 5737.75 2761.07 5742.47 3778.02 6552.21 5417.8 7132.12 3678.08 5518.57 4187.31 5463.48 5730.33 3240.51 5545.46 4527.99 4298.15 4376.7 5190.61 4628.4 8325.01 6051.83 4440.81 5941.9 3973.12 6642.76 4497.78 5567.93 4243.79 5987.42 4442.22 4669.06 3012.99 4811.32 6400.08 5829.32 4396.25 3763.05 5092.24 5551.95 5549.49 3918.87 5423.42 2275.45 6605.86 5012.5 3562.79 7093.13 4953.1 5818.95 4093.99 3604.14 3940.49 4452.54 5089.1 2711.19 5828.35 5876.72 4099.92 4884.59 3858.06 4680.14 4083.79 4187.94 5021.77 3796.15 5599.29 4801.8 7216.98 5271.02 7013.17 3805.67 4601.74 5088.57 5580.34 5134.67 3852.6 5775.31 4215.0 4603.5 4481.76 5452.78 5065.26 4304.41 4892.44 5578.94 4286.17 6579.31 5323.55 5375.1 5313.12 5351.56 4661.03 3984.88 5160.59 5262.35 4320.42 4255.34 5064.79 5480.3 7509.24 4394.56 5896.26 4275.07 5388.78 4185.61 4047.87 4573.72 5099.21 4917.99 4367.78 5146.37 5670.0 4836.16 4232.16 5300.96 5151.11 5680.94 3781.77 5581.55 5193.01 4543.1 6550.44 3860.83 3764.06 5732.27 4523.39 5278.56 5434.47 5829.22 5631.14 4343.78 5811.18 5433.65 4909.65 4008.15 4887.76 7693.4 4286.49 4437.07 6184.88 3449.37 6405.0 4659.16 5789.55 4633.05 4901.2 4383.56 4990.79 5166.79 6479.39 2895.63 4516.53 4122.92 5079.22 5381.54 5810.77 5474.15 4028.32 7519.2 6355.68 4511.7 4478.6 4304.63 5263.27 4469.54 6300.92 4173.54 6038.68 5046.12 4807.4 4590.01 6101.86 6506.86 5993.0 4803.57 5966.42 4110.59 4706.5 3332.49 5354.66 4647.67 4214.44 5375.12 4356.36 4787.97 3746.36 7610.49 4777.03 3684.56 4246.61 6028.09 5452.36 4172.6 3804.5 6486.37 5498.42 5318.53 4732.09 4281.98 7165.9 5344.83 3427.63 4146.81 4863.97 6342.48 5756.75 6101.13 5599.7 6969.28 5636.4 3665.95 5698.96 4350.12 4095.75 5227.02 3603.51 4298.45 5222.51 6609.84 4344.51 5135.96 3834.43 5658.37 4707.06 6074.94 3474.5 5491.37 4250.88 3783.54 6348.03 3475.67 4792.39 7038.89 5146.37 6917.62 4013.38 5067.56 6137.8 2735.53 5263.3 3352.35 3747.03 6523.86 2783.85 4326.48 3994.07 4219.94 5907.46 5491.9 4264.91 5399.29 4909.31 6522.59 5711.62 4798.17 5425.98 5996.66 4405.42 4997.91 2995.67 3598.08 4599.81 5698.23 7300.58 4714.83 3608.06 6633.61 5484.36 3953.55 4277.24 4063.9 5291.05 4314.56 5161.1 3928.53 4619.2 5606.51 5740.65 5067.56 3834.47 6349.67 6329.53 6541.45 4227.41 5391.48 4923.43 5131.15 4847.14 3950.27 5116.66 5378.23 5374.67 4981.43 6789.23 3989.7 4215.2 5069.89 4157.29 6813.72 5327.75 4609.02 4638.18 4196.37 3344.57 6448.66 5220.76 6945.98 5138.2 7046.11 5783.48 4449.98 4504.35 4840.44 5093.82 4587.67 4163.74 3924.14 4296.69 6238.32 3319.67 6471.42 5283.8 4076.59 4428.14 5164.1 6464.15 4972.17 5699.53 4222.77 5268.38 5527.23 4805.33 3863.67 4814.12 6193.08 6069.3 5887.01 5116.6 5388.39 5335.47 4356.49 4526.81 5048.19 6799.23 6740.71 6487.56 4854.11 5971.22 5533.19 5417.21 6602.43 3568.28 6063.64 5522.21 3772.3 4855.01 4923.57 3340.09 5217.95 4867.7 2279.05 4829.35 4075.28 8137.11 6650.77 5166.41 4067.96 7104.73 2596.96 5701.75 4350.15 4139.3 3516.27 4750.49 4263.78 5078.31 4643.9 5228.75 6047.14 5009.83 5210.38 5717.8 3629.44 3566.79 5003.78 3299.24 6246.56 4741.28 2603.64 5107.0 6212.15 4783.07 4896.65 4946.23 6083.28 5211.6 4453.97 3556.79 3503.41 4701.5 7001.83 4771.65 5012.97 5589.37 5439.49 5951.81 6918.35 4834.3 6804.79 6372.13 5369.5 5404.01 6016.19 4124.49 4479.11 5714.25 6685.4 4850.06 6332.01 7044.29 4234.18 4049.16 7085.01 5980.95 3936.95 6153.94 6836.82 3862.77 4631.99 5168.35 3185.39 3728.18 5633.61 4243.26 4153.84 4888.27 4592.15 4901.44 4998.22 5096.43 6104.26 5583.61 6171.71 4986.71 7382.3 4022.56 5027.43 5522.75 6208.9 5602.53 6061.63 6545.43 6760.92 5484.32 4711.04 4506.18 4824.12 6162.3 3272.75 4264.54 7043.44 4061.6 6502.97 4852.58 5806.31 5456.71 7317.04 6412.67 4036.91 6639.64 5212.43 5454.12 6348.54 4066.57 5642.35 5156.76 6357.47 6101.57 4891.38 5535.91 3230.13 5955.86 6176.67 5325.96 4848.46 5412.24 5016.02 4581.37 4920.21 6942.34 5851.61 5478.11 5526.31 3858.17 4740.98 5128.77 7122.87 5797.36 5119.86 5089.26 5084.17 3776.8 6156.21 2460.79 4653.83 3628.89 6589.82 4668.88 5867.64 4438.58 6059.93 5073.02 3472.91 4989.2 7144.05 2970.9 6542.5 4383.47 5971.21 6318.23 4206.98 4058.87 5174.75 5932.07 4984.46 5948.71 4793.65 2949.12 3856.53 5460.89 4533.37 