# vtk DataFile Version 2.0
Time step 53
ASCII
DATASET UNSTRUCTURED_GRID
POINTS 5000 float
27669.2 62751.0 0
372012.0 62845.6 0
403650.0 63234.0 0
2398.29 65842.6 0
8534.03 65216.0 0
6062.49 68536.0 0
12438.9 65050.1 0
16747.6 64368.0 0
22243.6 66015.9 0
33205.0 65438.4 0
38185.3 66022.2 0
42703.9 66175.6 0
47472.2 66081.7 0
52137.1 66181.4 0
57004.9 65021.0 0
62763.5 66096.8 0
67994.7 66230.3 0
72702.5 65362.7 0
77500.0 66109.7 0
82500.0 66098.9 0
87407.7 65397.2 0
92500.0 66137.1 0
97192.5 66158.6 0
101292.0 66075.7 0
105946.0 65465.2 0
111936.0 65944.4 0
117850.0 66129.5 0
123330.0 66206.2 0
128345.0 66327.1 0
133428.0 65575.8 0
138124.0 66259.3 0
142500.0 66180.4 0
147500.0 66114.0 0
152501.0 66083.8 0
157589.0 65711.3 0
162561.0 65866.5 0
167010.0 65408.2 0
171830.0 64291.2 0
177734.0 64329.5 0
182938.0 63515.7 0
183533.0 68583.8 0
187393.0 65370.5 0
192498.0 66532.2 0
196079.0 65694.6 0
201747.0 65055.0 0
207650.0 65819.2 0
212985.0 65154.7 0
218128.0 66240.7 0
222479.0 66253.1 0
225794.0 65482.1 0
230434.0 65354.2 0
235810.0 66352.2 0
241170.0 65056.5 0
246502.0 67057.9 0
252680.0 65041.9 0
259052.0 65516.5 0
263773.0 66605.0 0
268740.0 65513.9 0
273935.0 65809.2 0
278881.0 64460.6 0
282030.0 67793.1 0
286325.0 66100.8 0
291717.0 66556.8 0
297319.0 64425.3 0
303664.0 65209.4 0
307730.0 67779.7 0
312126.0 65634.3 0
317929.0 66251.1 0
323245.0 66156.6 0
327581.0 66427.7 0
332206.0 66026.2 0
337223.0 65735.4 0
341019.0 66946.3 0
345896.0 65281.2 0
350686.0 67204.5 0
355258.0 66187.5 0
361815.0 64828.0 0
367954.0 66161.1 0
377031.0 64817.3 0
382609.0 65691.5 0
388132.0 64992.3 0
394019.0 64308.2 0
399200.0 65976.8 0
408587.0 64446.2 0
412474.0 66096.8 0
417500.0 66142.8 0
422737.0 64253.6 0
427271.0 65962.2 0
432478.0 63765.5 0
437541.0 66119.1 0
442088.0 65060.7 0
446251.0 64641.4 0
450665.0 65409.2 0
455208.0 65348.9 0
460242.0 65192.6 0
465793.0 65582.0 0
471628.0 64838.5 0
477063.0 63642.0 0
481305.0 66505.2 0
485844.0 63574.2 0
491674.0 65112.9 0
497601.0 63606.3 0
2284.55 70856.9 0
6738.92 73581.2 0
11087.3 69568.1 0
17332.6 70270.2 0
23005.5 71526.0 0
28519.5 69102.7 0
34969.3 70713.0 0
40341.8 71031.5 0
44464.7 71373.2 0
48279.9 70076.2 0
52500.0 71141.6 0
57995.3 70462.3 0
62850.0 71196.3 0
67505.2 70868.1 0
72115.9 70482.4 0
77500.0 71267.8 0
82116.1 70913.9 0
87907.8 70155.0 0
92500.0 71276.8 0
97183.4 70905.5 0
102467.0 70810.3 0
108243.0 70056.3 0
112500.0 71213.1 0
117500.0 71294.6 0
122500.0 71217.5 0
127727.0 70760.2 0
132494.0 71111.0 0
137520.0 71125.8 0
142774.0 70603.0 0
146926.0 70951.0 0
151937.0 70828.6 0
156861.0 69760.5 0
161296.0 70580.7 0
166509.0 70080.0 0
172971.0 69860.1 0
178375.0 69741.7 0
188604.0 69816.0 0
193571.0 70676.4 0
198250.0 70039.3 0
203920.0 70674.7 0
213692.0 69705.0 0
209357.0 70889.0 0
217601.0 71311.4 0
222032.0 71077.5 0
226801.0 69717.2 0
232205.0 70779.1 0
237686.0 71603.5 0
243283.0 71427.7 0
248462.0 71131.4 0
252678.0 71602.0 0
257263.0 70155.0 0
262325.0 70780.6 0
267061.0 70356.8 0
271610.0 69660.0 0
277075.0 70063.8 0
282828.0 71479.8 0
287500.0 71191.1 0
292913.0 71047.9 0
298250.0 69935.7 0
303119.0 70879.9 0
307441.0 71072.7 0
312501.0 71385.7 0
317474.0 71126.4 0
322433.0 70624.6 0
327500.0 71171.3 0
332500.0 71243.7 0
337713.0 70576.8 0
343308.0 69971.4 0
347752.0 70367.5 0
352668.0 71094.3 0
361441.0 70140.6 0
357754.0 70607.7 0
365113.0 69832.8 0
372930.0 69646.4 0
378819.0 69368.1 0
382004.0 70506.4 0
388375.0 70080.5 0
393554.0 70455.2 0
402999.0 69433.5 0
398136.0 70890.0 0
408388.0 68727.0 0
412865.0 70038.9 0
417520.0 70658.4 0
422128.0 68890.3 0
428327.0 70904.5 0
424121.0 73707.5 0
433429.0 68998.6 0
437510.0 71187.5 0
443214.0 69342.9 0
447602.0 68651.4 0
451946.0 69886.7 0
457176.0 70075.9 0
462429.0 71566.0 0
466599.0 70151.7 0
470193.0 71332.0 0
475181.0 70131.5 0
480797.0 71780.2 0
486589.0 69763.4 0
492077.0 72013.7 0
496837.0 69115.5 0
2238.62 76780.8 0
11843.3 75397.4 0
16323.4 75477.4 0
20502.9 75487.4 0
27043.9 75935.3 0
32616.0 75768.7 0
38263.9 75544.2 0
42970.8 75931.2 0
47589.0 74797.3 0
51800.6 76562.3 0
56554.7 76082.5 0
62115.2 76052.2 0
67697.8 75712.0 0
73695.3 76025.1 0
78211.1 76465.2 0
81954.5 75640.0 0
86960.3 75670.8 0
92531.5 76027.7 0
97548.4 75424.8 0
102630.0 76572.3 0
107924.0 74836.2 0
116732.0 75897.7 0
112494.0 76109.9 0
120857.0 75747.8 0
125864.0 75128.2 0
131158.0 76827.0 0
136445.0 76779.3 0
140992.0 74723.8 0
146305.0 75842.3 0
151834.0 77440.1 0
156244.0 74321.2 0
161703.0 76271.3 0
166528.0 78089.6 0
169996.0 74646.5 0
176294.0 75499.4 0
182187.0 73722.8 0
188048.0 75977.6 0
194261.0 75702.6 0
199972.0 75144.4 0
208111.0 75797.6 0
204288.0 76139.6 0
213300.0 74515.8 0
217709.0 76245.1 0
222564.0 75351.8 0
226872.0 74722.1 0
232444.0 76243.8 0
237422.0 76029.4 0
241792.0 76682.7 0
246841.0 75199.5 0
251784.0 76493.2 0
257738.0 74907.0 0
262720.0 75558.2 0
267489.0 74811.3 0
273047.0 74900.0 0
279878.0 74127.1 0
283554.0 76412.6 0
287215.0 76480.2 0
291016.0 75354.2 0
296734.0 74979.1 0
302234.0 76114.7 0
307700.0 75502.5 0
313207.0 76627.7 0
318188.0 75616.3 0
322509.0 74629.8 0
326812.0 76511.3 0
336512.0 75241.3 0
331856.0 76226.9 0
341414.0 74176.8 0
346846.0 74754.1 0
351893.0 75929.3 0
356026.0 74481.7 0
361261.0 74842.7 0
357349.0 78439.2 0
366513.0 73913.7 0
366550.0 78606.4 0
371101.0 75787.1 0
377673.0 75303.1 0
384354.0 73844.0 0
392424.0 75277.9 0
388338.0 77032.3 0
397217.0 75237.7 0
402858.0 75674.5 0
409244.0 74371.9 0
414413.0 76926.2 0
419145.0 75347.7 0
427686.0 76743.7 0
432249.0 74621.9 0
437342.0 75359.0 0
442359.0 74579.9 0
448276.0 73724.4 0
446524.0 78721.2 0
454179.0 75290.8 0
458992.0 76340.5 0
463188.0 76103.5 0
467519.0 76210.2 0
472372.0 74654.0 0
477746.0 75602.1 0
482622.0 76475.0 0
487506.0 77578.0 0
491506.0 76075.1 0
496591.0 75684.2 0
2182.12 81194.8 0
8050.23 79421.7 0
13471.9 80024.3 0
11905.7 83764.4 0
17752.4 79321.7 0
22417.4 79860.9 0
26989.1 81858.2 0
32072.9 80056.1 0
37589.6 80748.9 0
43206.2 80994.3 0
49063.6 79588.6 0
53807.2 81263.0 0
59223.1 80761.3 0
63617.0 80383.8 0
68064.9 81383.8 0
72603.0 80900.7 0
77068.8 80384.5 0
82136.1 80661.0 0
87334.0 80844.5 0
92269.2 81358.3 0
97732.1 80777.0 0
102767.0 82028.7 0
107685.0 80334.4 0
113113.0 80439.1 0
118139.0 80373.8 0
123420.0 79735.4 0
127500.0 81291.9 0
137738.0 80693.3 0
132691.0 81655.0 0
142524.0 80842.7 0
148002.0 80450.4 0
156828.0 79715.1 0
153420.0 82093.4 0
160406.0 81084.2 0
164429.0 81793.1 0
170842.0 80675.6 0
177032.0 82067.4 0
182233.0 79201.3 0
186625.0 81612.0 0
191646.0 81098.9 0
197223.0 80429.8 0
203055.0 80283.7 0
208748.0 82143.7 0
214360.0 80186.6 0
218717.0 81494.0 0
222020.0 79609.4 0
227505.0 80272.4 0
234333.0 80623.2 0
237875.0 79353.4 0
241749.0 81283.3 0
246210.0 80384.7 0
251518.0 81751.6 0
255872.0 79622.3 0
260336.0 79291.9 0
262636.0 82866.4 0
266349.0 79493.4 0
271756.0 81168.8 0
278361.0 79630.0 0
284358.0 81151.6 0
288758.0 79633.7 0
292983.0 81349.4 0
298941.0 81279.0 0
303985.0 81511.5 0
307500.0 81335.3 0
316257.0 80330.7 0
312166.0 81154.1 0
321079.0 79854.8 0
325851.0 81444.1 0
329893.0 80053.3 0
334357.0 82050.5 0
339780.0 79567.7 0
346088.0 81008.7 0
352844.0 81504.9 0
361674.0 80830.4 0
367104.0 83513.6 0
371934.0 81421.0 0
377880.0 82754.4 0
382813.0 79360.0 0
387369.0 81217.6 0
393045.0 81950.1 0
399508.0 80844.2 0
408059.0 79720.7 0
404321.0 80871.1 0
412346.0 81389.9 0
416948.0 80729.8 0
421365.0 81975.8 0
425659.0 80371.0 0
431067.0 80813.8 0
437115.0 79553.8 0
441811.0 80165.6 0
450849.0 79218.3 0
455406.0 81063.5 0
461200.0 80752.5 0
466975.0 80536.1 0
472594.0 79613.4 0
478847.0 81101.2 0
484704.0 81616.1 0
489148.0 82340.2 0
492124.0 79930.5 0
496754.0 82326.7 0
1482.51 85869.3 0
7155.35 85729.5 0
12671.5 88269.6 0
17161.8 84501.0 0
23053.3 85245.0 0
30224.5 84595.7 0
28648.7 88642.0 0
34875.2 85389.9 0
39764.5 84813.0 0
43683.5 86646.9 0
48583.2 84813.0 0
53135.2 87264.3 0
57213.6 85153.5 0
63064.6 85158.8 0
68310.1 86559.4 0
73401.5 84958.8 0
72212.2 88837.5 0
78302.6 85532.9 0
83593.9 85601.7 0
88398.3 85661.8 0
92509.0 86200.5 0
97237.0 86192.4 0
101195.0 86258.1 0
105585.0 85850.6 0
111306.0 85023.0 0
116640.0 85631.9 0
122098.0 84925.6 0
126931.0 85333.5 0
131218.0 86035.5 0
136577.0 85243.4 0
142212.0 86536.1 0
147012.0 84727.6 0
151801.0 86660.0 0
157942.0 85653.0 0
167047.0 84667.6 0
163657.0 86278.5 0
171003.0 86683.7 0
176727.0 88358.7 0
182933.0 86121.3 0
193693.0 85184.5 0
189204.0 86017.4 0
198249.0 86317.1 0
203174.0 85384.5 0
207321.0 87524.3 0
212115.0 86395.4 0
216320.0 84803.7 0
221175.0 85143.3 0
226331.0 86910.3 0
231983.0 85121.7 0
237943.0 84089.3 0
242843.0 85939.9 0
248029.0 85462.8 0
252897.0 85779.7 0
257727.0 84804.5 0
262829.0 88445.5 0
267587.0 85445.4 0
272697.0 87053.8 0
278480.0 86284.4 0
283573.0 85738.3 0
288835.0 84954.2 0
293487.0 85947.3 0
297506.0 87324.6 0
302639.0 85816.8 0
307115.0 86176.8 0
311941.0 85895.4 0
316965.0 84767.5 0
322296.0 85450.3 0
330937.0 85568.3 0
327150.0 86314.6 0
341522.0 85061.5 0
337123.0 85947.0 0
346657.0 86976.1 0
351577.0 87155.4 0
357892.0 85017.5 0
362982.0 85804.6 0
370163.0 86962.3 0
374540.0 86976.6 0
383272.0 85371.4 0
388210.0 85398.1 0
392170.0 88196.5 0
397892.0 86781.4 0
403054.0 84846.8 0
408162.0 84570.8 0
414685.0 85037.8 0
417929.0 86290.7 0
422500.0 86836.5 0
427477.0 84820.4 0
431264.0 86242.5 0
436128.0 84538.4 0
441997.0 85825.8 0
448332.0 84232.3 0
454028.0 86224.3 0
459446.0 86365.0 0
464982.0 85643.1 0
473889.0 84829.8 0
469647.0 86494.8 0
477663.0 87903.0 0
481986.0 86054.9 0
486773.0 85951.0 0
492177.0 86507.7 0
497457.0 88062.3 0
2749.67 89907.3 0
7838.87 92250.3 0
18088.5 90271.3 0
23745.7 91003.3 0
28782.8 93985.0 0
33633.4 90946.4 0
39135.7 89654.0 0
43746.5 90856.7 0
48695.2 90782.7 0
54182.5 91968.7 0
59720.7 90164.9 0
64872.1 91264.8 0
68290.1 90748.7 0
76319.1 90428.2 0
81940.3 91022.3 0
87885.6 90730.8 0
96906.3 90765.4 0
92636.6 91126.7 0
101491.0 90895.1 0
106437.0 91186.9 0
111043.0 89872.4 0
115385.0 90348.2 0
120870.0 90950.2 0
[...]
POINT_DATA 5000
SCALARS Radius float 1
LOOKUP_TABLE default
5782.6 5529.52 6324.23 4796.58 3979.26 4298.67 3471.03 5253.55 5820.48 4862.21 5113.21 3929.19 4107.03 4478.15 5379.87 5925.6 4501.51 4792.73 4736.58 4931.38 3485.26 4329.05 4151.94 4049.23 5337.48 6124.89 5708.81 5252.48 4780.03 5495.39 3996.0 3856.1 4665.12 3383.4 4133.88 4834.9 3850.77 6044.04 5415.48 5120.0 5085.53 3863.18 2356.98 4998.37 6182.6 5492.18 5258.36 5061.3 3642.12 3163.97 5812.43 5122.66 5906.14 5484.19 7513.1 5254.28 4436.4 5733.48 4672.91 5580.89 3588.44 5645.7 5176.86 6810.52 5840.26 3672.51 6110.27 5561.06 5073.35 3615.22 5670.04 4380.59 3589.27 6716.79 3607.45 5759.91 7613.27 4951.03 5255.32 6037.08 5096.78 6756.95 4129.43 3843.58 3320.52 4194.5 4270.53 5344.25 5191.63 4593.7 4150.99 4216.92 4742.68 4344.58 5634.83 5495.84 6268.1 4861.06 5374.51 5320.28 6739.08 4797.52 4569.12 5873.69 5960.66 6608.73 5011.84 7034.11 6261.42 4502.5 3771.48 4043.57 4271.69 5681.38 4138.42 3708.04 5513.6 3240.09 4556.36 6082.81 3191.99 4685.34 5601.05 4929.8 3586.91 3103.0 3554.9 4015.92 5542.21 4487.31 3936.02 4044.71 5980.74 4094.62 4927.02 5546.39 5325.36 5484.83 5351.6 4730.36 4715.55 5867.73 3951.75 5013.56 4499.64 4375.68 5542.27 5054.98 6030.06 5170.02 3557.27 4927.31 4688.68 4402.52 4517.56 4182.53 5903.42 3955.56 3761.32 4118.05 4366.19 5553.16 2938.66 4940.78 4231.61 4008.92 3942.53 3379.84 4827.82 3997.1 3260.67 5123.52 3038.33 4392.68 4333.2 7199.21 4523.7 2240.39 5091.39 5293.9 6142.94 3912.37 4727.24 4602.25 4790.08 5082.47 4763.45 5344.0 5445.87 3815.26 4704.72 4177.94 4571.7 5896.46 5022.8 3784.5 3780.23 6481.79 5224.12 7042.12 4819.73 6326.39 4471.58 4962.09 3999.48 4359.62 6946.21 2586.12 5433.8 4011.77 5499.11 3633.87 5922.5 5198.77 5987.17 6013.14 2765.2 4901.41 5110.37 5664.98 4382.74 5927.43 4651.28 3693.63 4384.42 4516.43 5481.78 5637.59 4937.14 5043.05 5816.2 5693.81 5109.54 6483.19 3829.13 5945.65 6759.9 5538.89 7021.47 5416.38 6059.59 4955.55 2720.68 5701.86 3563.63 4238.81 4468.59 5885.03 2837.58 5325.02 5200.76 5017.13 4862.64 5185.34 4432.58 6684.56 3968.64 4688.67 2635.86 5292.64 6166.5 5065.13 5936.02 5305.17 4861.08 4003.05 5390.22 4805.87 4712.33 5227.21 5697.78 4667.36 4091.31 6372.62 4254.17 4295.38 5090.24 5615.42 7565.34 5923.5 4612.68 4281.49 4973.83 6342.25 6691.39 4840.84 5135.69 4020.32 6045.46 4245.72 5908.1 6048.7 4541.21 6133.92 3719.84 4178.4 3095.48 4166.08 4123.6 4850.14 5163.55 3382.7 6817.32 4319.79 6098.14 4472.17 3637.61 4203.26 5188.81 4730.41 6057.22 5062.71 6125.34 4527.08 5347.48 4850.01 3970.25 5147.67 3979.82 5011.31 5138.31 5264.06 4659.59 6327.9 4048.37 6355.42 4362.19 5690.56 4948.92 3115.91 3307.12 4493.48 5924.89 4002.16 4174.52 4138.16 3486.22 4684.5 6230.49 6458.82 5418.62 4601.27 5493.32 5740.68 5926.61 6051.14 5836.15 3261.21 4345.55 6704.06 3653.41 3871.88 3856.01 5246.2 4390.66 5279.39 3673.74 4827.23 5205.43 6116.18 7447.37 4924.6 4385.06 4733.32 7184.19 2899.43 2924.37 4290.3 3867.67 5399.73 4660.72 3888.21 5891.05 6038.78 6902.81 6644.76 5629.19 4786.6 5740.84 6445.94 5530.87 4310.18 7134.64 5978.9 4187.56 3629.62 4997.27 4301.06 4877.67 4290.14 6562.18 4156.38 5316.75 4164.68 5669.65 5934.22 5624.49 5762.59 7092.87 4666.81 3703.1 3954.91 6471.55 2965.01 6643.85 5501.93 6222.42 5654.31 3745.84 4938.74 5690.26 4156.2 4497.59 5965.78 4374.35 4810.12 5643.58 5215.05 4292.06 3821.72 5577.04 5006.58 4602.86 3688.8 4548.16 3369.23 5449.18 5492.26 5244.78 5762.84 3937.74 4749.8 6084.86 5478.92 4778.34 5551.36 6894.71 3091.3 4414.54 5789.98 6138.47 7054.71 3641.64 5489.43 5747.75 4277.89 5054.25 4796.33 4195.44 5539.32 5360.19 6496.85 5600.93 4874.39 5541.59 4124.71 5728.85 6337.56 4911.47 5803.39 5863.59 4381.97 6257.19 3255.82 5242.73 2812.98 4065.69 5603.15 4695.45 6052.7 3921.18 3798.62 5308.1 3666.57 4907.89 4937.02 5655.21 4645.41 4433.59 4320.28 5542.14 4218.06 5480.13 6308.71 4716.19 5514.76 3456.98 3498.2 5105.16 3066.13 4302.5 6006.16 6009.88 7055.53 5013.67 5826.04 5339.78 4970.88 4143.78 4763.66 4636.5 4940.42 5923.4 5085.71 5499.39 5644.82 5463.38 5945.21 5750.71 5696.88 5607.14 3923.03 5975.63 5252.34 6396.74 4138.46 2775.04 4986.77 6318.18 5586.81 4621.75 3948.17 4551.24 5358.59 4220.88 4515.71 6519.71 6640.13 5082.6 5810.84 4230.54 5094.44 3748.24 4655.49 4467.94 4850.81 6038.14 2540.31 6029.66 5527.54 5573.7 5697.4 4727.62 4270.95 4055.8 7325.81 5280.17 6425.26 5143.58 4794.96 6186.19 4839.34 5083.08 6834.49 5525.39 3998.5 5938.34 4024.3 6394.38 5555.28 5169.36 4737.14 4686.65 5834.74 5556.96 5788.23 5581.75 6392.01 3599.45 6730.19 4907.06 4073.93 3735.44 5163.9 6043.3 5952.75 6332.36 6122.55 2739.94 4931.53 6155.31 4223.33 5911.67 3323.28 6695.82 6405.76 5794.24 4678.38 5448.61 5050.65 4827.33 5206.48 5513.57 5729.23 5226.0 3365.82 4538.95 5965.15 4780.2 6090.91 4946.42 5019.93 5081.78 6116.33 6263.44 6343.14 5774.97 5462.21 5470.77 4831.47 4643.85 4004.04 4289.17 5564.02 4274.61 2965.79 4410.55 6898.19 6035.6 5137.34 4481.53 5330.45 4581.13 3610.4 4219.07 6387.01 5367.52 3092.35 4322.15 5210.03 3629.96 5478.47 5351.39 6142.37 6061.47 4933.21 5375.47 4723.12 5120.49 5201.36 5262.61 6302.8 5409.61 6038.2 4005.44 5206.78 5555.88 6732.43 5028.96 3866.16 6362.12 4484.76 4840.01 2980.99 5611.2 7933.0 4455.12 5173.87 4894.16 5380.13 5711.87 5118.27 4941.22 5932.23 5791.61 3369.13 4479.66 3043.85 5367.2 5461.13 4726.76 5839.13 5495.68 5489.34 5708.14 5537.72 3920.42 8332.24 4553.56 5329.64 6049.55 5709.62 5835.78 4127.74 2476.04 5133.97 3942.07 7443.72 3937.08 5260.34 4709.35 6586.45 4373.3 4750.78 4163.5 5724.64 5078.86 5100.1 3561.29 4963.34 3295.83 4459.28 4260.92 6250.23 5960.56 4118.84 4020.95 6313.06 3474.39 6470.3 4200.03 6062.05 5082.74 6915.83 6072.45 7099.43 5526.14 5198.29 5423.0 5077.33 3856.59 4746.52 5413.79 6338.89 6202.55 5025.39 4714.54 5893.5 3320.11 5030.91 6022.17 5119.37 3982.23 6163.38 4566.18 3459.9 4964.09 4809.42 5024.9 4306.53 5659.17 5094.81 5972.06 5713.22 5861.71 4359.04 3183.98 3794.63 4524.28 3778.1 5152.36 4511.82 5826.64 4220.65 6820.42 4816.2 6321.41 4896.52 4751.02 3372.79 5184.56 5282.64 4715.72 4669.66 4808.52 5046.33 5607.24 5053.92 6352.26 3847.38 3818.59 4863.72 5002.48 6623.85 4262.82 5102.36 4342.9 5065.11 5069.84 4051.44 4241.89 5054.74 5941.72 5991.09 5126.91 6600.94 4788.58 5371.02 6155.1 5876.71 6262.72 5029.78 6515.84 4888.6 2990.77 4739.14 4918.77 4371.99 4219.78 4188.3 3885.86 5235.29 4479.94 6413.02 4863.27 5862.86 6049.79 3493.7 5374.98 4719.7 6939.12 4735.33 5411.85 5092.37 6444.77 6314.07 4287.63 5315.4 6449.45 3975.31 3689.45 3824.16 5572.95 3868.18 6723.16 5584.06 7111.16 4547.19 3817.13 5507.24 6851.54 4583.31 4503.89 5806.08 4853.39 4997.27 4093.08 4449.22 5543.27 4717.05 5287.2 6135.57 5998.38 4312.67 5423.8 4270.24 4989.15 5017.78 5015.69 6175.81 4727.24 6677.09 4305.57 6959.81 4829.35 5201.67 4424.7 4089.76 5526.55 3192.41 5215.15 4987.87 3315.57 5804.71 4764.96 5727.3 4242.52 5356.51 4277.88 4087.15 3057.03 4143.08 7500.97 3948.23 5228.18 5787.31 3927.99 5868.82 4978.31 4050.9 4099.77 4537.32 4981.9 4656.78 3600.43 5131.24 5196.67 6496.67 5474.8 6607.87 3664.11 5117.47 4925.63 5882.65 4434.19 5187.7 4623.61 6261.75 5177.64 4255.31 5453.3 4407.9 3492.19 4584.5 5122.63 4703.08 6345.13 5274.19 5516.95 4406.4 4413.85 4844.57 4027.46 4470.98 5776.37 4516.28 3627.82 4044.45 5125.78 5344.43 4373.47 5045.38 5350.88 5372.61 3686.21 6480.17 5023.15 4377.07 3813.22 5101.59 5570.3 4336.42 5243.29 7589.94 3130.65 5628.24 5856.11 3327.49 4109.88 4234.94 4562.29 5013.13 5080.66 3417.33 4926.42 4164.13 4642.34 4520.1 4947.52 5874.89 4293.03 5813.4 4389.21 3791.79 4925.44 4754.05 4951.47 6084.93 4307.28 3697.96 4739.42 5538.93 5020.12 4745.45 2631.9 5281.28 6255.18 4668.71 4758.21 7228.46 6362.14 6719.88 5978.82 5266.5 4523.88 4066.38 4948.98 4414.48 5227.52 4092.24 5163.02 7144.24 4906.82 5687.83 5004.23 6442.69 6320.71 4648.04 3464.83 4721.32 3293.56 3163.78 5274.14 4903.82 5746.28 4082.47 5511.6 4338.08 4378.3 6134.99 4094.73 4989.56 4718.54 4440.57 5548.29 6766.43 2315.64 4390.41 5226.56 5599.49 5313.22 3905.51 3999.94 4864.22 3901.8 5759.46 5083.41 3921.08 4190.31 5678.96 5262.19 4244.9 6070.58 6034.41 5452.83 5130.91 5402.24 4519.22 6445.22 3844.9 3695.36 4564.34 3963.86 3848.93 4306.11 5935.47 3402.32 5903.66 4528.49 5004.67 5365.89 5992.26 3960.8 5070.39 4980.85 5714.58 5110.45 5208.32 5248.77 3296.27 4083.97 4607.02 5153.74 4528.09 3895.51 4165.81 6291.51 4128.98 5174.89 5882.89 6246.22 4188.32 5246.61 4100.38 5344.77 4723.48 4899.11 5097.87 4278.07 7267.18 6256.02 5320.92 5269.18 4305.43 4406.1 5034.59 4942.77 4263.33 4454.63 5080.18 5912.61 3279.1 4403.98 4560.84 4729.43 5776.57 4562.74 5683.26 5598.74 5139.5 7493.3 4814.55 3527.05 5698.77 2477.07 6413.11 4305.16 5092.28 4965.89 5659.95 4152.85 2908.7 4453.64 4517.73 5469.47 5660.16 3838.47 2588.37 6736.03 6235.57 3623.87 5916.16 3087.09 6934.37 6113.95 4050.08 4097.57 5017.5 5563.79 6171.13 5511.88 4512.11 7055.42 5486.68 6048.86 5100.25 4285.32 5490.43 5022.28 5197.52 4959.34 4948.5 4527.02 4531.14 5013.42 3838.56 4871.44 5076.35 6020.48 6375.99 5200.05 5234.29 5313.66 5419.37 4466.03 4511.54 5409.33 5196.0 4923.9 4973.78 3329.99 3947.47 5091.68 4713.25 4204.84 6243.0 6673.96 3556.85 3161.47 5441.96 3435.9 4288.3 5370.52 4652.29 5774.81 3746.31 5498.32 5027.98 5346.27 6475.1 4969.21 2691.29 2845.98 4880.14 5289.52 5314.85 5450.44 6510.17 5742.65 5592.32 5381.16 5565.13 6193.35 6086.96 5233.78 3701.27 5653.9 5046.21 4929.14 5894.61 3979.54 5304.13 5944.09 5833.06 4923.41 4497.31 5384.76 5529.42 5257.12 5243.43 4537.14 5551.9 3757.34 6415.61 4687.64 4419.71 4888.12 5037.06 4541.8 5175.29 5842.56 5887.15 5412.31 3423.15 4890.5 3981.07 5452.42 5328.22 6853.85 2395.5 3497.9 5941.61 5782.48 6248.6 5683.61 3836.45 6894.26 4986.51 5339.38 5178.99 5383.07 4591.87 4790.78 4247.15 6552.22 5651.07 6248.81 5273.35 4091.8 2651.49 4645.58 5512.23 5275.32 5985.29 4898.94 4178.15 4613.31 4733.04 6119.09 5788.66 7531.29 5069.25 5048.89 5935.03 3991.03 6390.78 7435.25 6826.57 4788.87 4249.46 4495.87 3702.37 6022.72 4643.31 5527.33 6917.52 5402.21 4989.09 4982.31 3848.54 4307.48 5941.4 5331.02 4871.96 4863.23 4402.67 4470.61 4631.83 4384.88 6887.27 6008.49 4806.34 4287.53 5612.21 5945.08 4968.03 3306.14 5490.58 4863.79 4702.06 3830.46 6031.67 4689.15 6138.12 4428.78 4655.16 5409.66 4345.67 3867.19 4765.72 4642.66 4039.91 4752.14 5329.59 6119.63 4950.97 5512.16 3197.63 4863.96 5191.08 5203.08 7480.41 5163.77 4488.85 3731.84 4901.07 5186.3 3436.15 4151.76 4020.4 3493.47 4596.75 4933.65 5443.58 4558.46 5805.86 4049.02 4470.4 5311.03 5255.12 6169.11 5615.35 4027.09 6422.84 4502.18 5379.09 4602.85 4962.77 5872.05 4853.02 6259.23 5181.4 5088.44 5670.2 4711.62 4247.23 4114.24 4268.65 4694.83 5509.42 4354.08 4256.43 5936.36 4520.62 3903.75 4755.47 4485.99 5127.16 5475.8 5314.69 4244.99 6050.81 5543.46 6185.89 5965.81 4750.17 5660.85 2330.66 3990.25 4177.19 3691.0 4752.51 3587.05 6229.37 6718.19 5282.91 4425.84 3797.33 7256.35 4800.69 6566.1 3555.86 6386.78 4996.99 4896.39 6081.14 5480.83 4220.46 4607.85 5128.57 6000.7 3169.67 5604.21 3361.92 6710.88 5395.14 3967.48 6213.04 6622.11 3685.13 6790.73 5251.4 5097.69 5857.79 6543.13 5276.7 5036.58 5411.02 4752.9 4287.16 5199.44 4062.5 4435.51 5374.07 4588.7 5683.95 3766.55 4579.69 3554.48 5010.2 6496.52 5005.85 4216.17 6484.17 4721.02 4938.72 4254.37 3374.08 4031.78 6098.1 5708.99 5687.85 5346.68 5296.29 4611.53 4896.11 4285.66 5172.53 4135.62 5801.99 5534.94 5210.48 7644.38 7552.94 6101.92 5323.3 4998.21 4662.56 5166.79 5349.31 2976.22 3405.98 4649.22 5394.55 5094.52 4946.74 2682.24 5996.33 5928.32 5229.48 5475.7 4016.18 5526.75 5435.74 6385.23 5327.45 5560.26 3997.96 6205.93 4439.35 3460.94 5830.72 6184.4 3758.07 4373.45 4236.14 4407.87 5733.62 5169.9 5282.51 4460.92 5945.89 4042.28 4105.55 4340.76 6065.22 4221.28 4456.39 5514.84 3633.79 5421.53 5937.08 6070.3 5233.29 4312.56 4612.06 5204.04 4750.58 5926.11 6667.68 5235.11 5211.38 5089.62 4590.55 4741.26 5920.32 4255.85 4732.09 3988.3 4356.25 5149.72 5776.96 5464.25 5486.48 5301.47 4617.55 3645.12 5424.88 5415.85 8659.64 5469.13 6027.62 5765.42 6123.03 5966.61 5711.11 4575.94 3546.71 5768.57 5564.23 5950.04 4231.83 2435.33 6401.43 4558.47 5020.71 2681.29 5094.48 3872.61 4238.4 4318.48 6132.95 5266.22 4860.33 3685.13 6004.68 4051.34 3361.26 3627.55 6239.84 4635.6 4256.67 3457.48 3931.07 6430.39 5417.15 3688.16 4681.72 3949.6 4945.39 3950.63 5415.19 6631.19 4612.62 3619.07 6648.68 4275.57 4467.04 5626.61 5817.25 2983.99 2614.4 5061.98 6363.92 4923.24 4419.61 7177.44 3828.81 5309.98 4082.57 5255.18 3004.16 4767.78 5235.17 4421.12 4779.5 4435.36 5254.49 6649.96 4303.19 5784.3 3914.2 4256.57 6088.68 4643.56 4135.08 5620.74 4778.82 6124.08 5467.84 5053.95 5266.01 5253.37 5767.9 6515.8 5869.4 3685.65 3701.16 4186.6 5895.77 5750.07 6136.49 4757.74 4216.95 4209.49 5742.74 4244.21 4947.24 3875.05 6200.54 5148.58 4199.45 7234.66 6599.66 4055.54 4233.8 6098.95 4997.83 4893.49 5325.44 5021.88 5956.65 4498.25 4188.87 3735.24 6574.95 4074.48 6333.29 5731.57 5997.88 5839.71 5576.92 6408.83 3930.79 4004.35 5226.97 3312.06 5180.76 6799.4 5278.36 4409.63 5865.39 4427.28 6079.11 3082.32 3658.37 7440.72 5376.71 5703.6 6326.18 5661.62 4867.08 4266.03 4713.74 5407.78 4084.49 6179.96 6632.99 4537.6 5147.36 6260.79 4563.46 6553.94 5726.66 5460.65 5652.0 5463.41 5225.33 4929.75 6045.22 4614.3 5134.39 3532.3 5769.98 5442.32 2221.99 3580.58 4863.01 5356.79 5657.36 3619.79 5029.47 6306.21 2978.76 2040.66 7016.27 5884.9 3876.21 5689.26 4916.22 6022.7 4940.84 4833.46 4809.67 6045.67 3946.28 3821.94 5439.9 5367.73 3540.11 4640.06 4652.01 3456.47 5421.64 4207.54 4886.12 6419.12 4976.12 4817.16 5453.98 3991.42 4388.63 5102.75 4200.09 4597.29 5931.77 5938.17 5151.21 5398.64 6817.57 4477.04 3614.96 3886.68 5703.74 5662.55 5737.92 4360.23 5365.24 5293.51 4763.96 5754.18 5008.63 3418.99 5132.68 4480.95 4993.35 6218.95 5521.25 3661.9 5370.85 5949.46 3178.54 3776.94 4765.02 5629.39 4448.13 5070.29 4807.28 4768.61 2261.36 5075.55 5280.69 4220.03 6923.84 5227.59 5449.46 5703.07 6113.54 4662.43 3963.76 4043.66 5528.53 6799.88 3062.43 5990.52 5426.78 2967.38 4159.35 6477.91 4237.98 3091.67 6439.37 4081.97 5401.99 5580.92 5973.33 5067.46 3583.21 2511.46 4011.37 2775.69 4785.25 5461.55 6519.43 5876.64 5424.46 4857.84 4908.49 4962.21 4858.44 3468.42 4673.35 4771.13 4992.42 5297.19 4351.38 5550.75 5933.7 7248.4 5280.12 4444.97 5984.81 3498.16 4247.69 4409.27 4588.99 5471.74 3548.39 3673.28 4928.27 4858.51 3375.28 5625.65 4301.61 6107.89 4446.84 5660.55 5148.08 4834.87 5760.22 3672.21 4795.43 5097.95 5108.06 3573.73 4693.52 6853.04 4745.43 5831.96 4747.55 3056.7 3755.95 6234.32 4586.19 4446.06 3450.93 5323.91 4270.74 6595.03 4558.15 5222.16 4690.55 5107.23 5136.08 5558.68 4802.32 4010.57 4599.38 2684.03 5246.47 6157.04 4522.21 7422.36 5506.19 6719.94 4950.67 5832.37 6166.29 5453.6 5409.63 5294.77 4709.05 3077.84 4630.82 6109.49 4813.08 5860.67 4540.86 5332.65 3764.1 4835.83 5604.35 6316.56 4332.87 6420.81 4715.58 4450.7 5151.52 5369.08 3101.75 4347.74 4009.62 5291.9 2081.58 4874.18 6505.78 3298.2 4270.15 6865.76 6449.64 6464.8 4684.44 4749.59 5799.69 3809.69 5571.72 3208.96 7051.9 4184.23 4144.57 6834.41 6226.14 5466.33 3000.29 5721.05 4209.31 4514.39 6242.79 4321.21 5950.45 4344.34 5713.03 3583.49 5052.84 4366.74 5297.16 3184.64 4936.96 5206.33 5530.49 5653.03 3718.69 4514.79 6192.0 2216.82 4509.89 4940.28 6752.75 5269.38 3004.34 5607.3 2928.82 4222.4 4000.43 3420.08 4568.41 4912.04 3624.7 4539.07 5464.68 2685.81 5591.76 4585.31 5010.04 6625.18 4570.98 5097.45 6293.89 2761.07 5737.75 4983.39 5366.52 3778.02 5533.72 5533.42 7132.12 3678.08 5518.57 4187.31 5463.48 6191.29 3240.51 4527.99 5161.01 4376.7 4298.15 4628.4 6051.83 4642.93 5941.9 4263.16 3973.12 6642.76 6024.75 4497.78 5567.93 5987.42 4442.22 6451.33 5413.31 4669.06 3012.99 6400.08 4743.59 5208.14 3317.83 4396.25 3763.05 5092.24 5549.49 5423.42 4518.04 4766.06 5012.5 5435.19 7093.13 4953.1 5818.95 4093.99 3940.49 4406.05 4680.94 5089.1 5828.35 5876.72 5236.43 5285.07 4680.14 4608.41 4083.79 4187.94 5980.59 5021.77 3796.15 4801.8 7216.98 5271.02 5718.28 4601.74 5088.57 5849.65 5134.67 4165.21 4215.0 4603.5 4481.76 5452.78 5065.26 4304.41 5885.28 6579.31 5323.55 3022.6 4914.45 4811.76 4698.87 5351.56 4661.03 5160.59 4691.91 5262.35 4475.83 4255.34 4510.8 5064.79 5889.35 4394.56 5896.26 4275.07 5825.38 4185.61 4047.87 5742.47 4917.99 6552.21 4367.78 5417.8 5146.37 4836.16 5300.96 5151.11 5730.33 5545.46 5193.01 4543.1 5190.61 6550.44 8325.01 3764.06 4440.81 4523.39 5278.56 5434.47 5829.22 5631.14 4243.79 5811.18 5433.65 4008.15 4887.76 4811.32 4286.49 6184.88 5829.32 6405.0 5551.95 3918.87 2275.45 4633.05 4901.2 6605.86 4383.56 4990.79 3562.79 4516.53 4122.92 3604.14 4452.54 5810.77 2711.19 5474.15 4028.32 4099.92 4884.59 3858.06 4511.7 4304.63 5263.27 6300.92 4173.54 5599.29 6038.68 5046.12 4807.4 7013.17 3805.67 4590.01 6506.86 5580.34 3852.6 5775.31 4706.5 4647.67 5375.12 4356.36 4892.44 5578.94 7610.49 4286.17 3684.56 6028.09 5375.1 4172.6 5313.12 3984.88 5318.53 4732.09 4320.42 4281.98 7165.9 5344.83 5480.3 7509.24 4146.81 5388.78 6101.13 4573.72 5099.21 6969.28 5636.4 5698.96 4350.12 5227.02 5670.0 4298.45 4232.16 5222.51 6609.84 4344.51 5680.94 3834.43 3781.77 5581.55 4707.06 3474.5 4250.88 3860.83 6348.03 5732.27 4792.39 5146.37 6917.62 4013.38 6137.8 4343.78 5263.3 3352.35 4909.65 6523.86 7693.4 4326.48 4437.07 3449.37 5491.9 4659.16 5789.55 4909.31 6522.59 5711.62 4798.17 5166.79 5425.98 6479.39 2895.63 4997.91 5079.22 5381.54 4714.83 7519.2 6355.68 4478.6 3953.55 4063.9 4469.54 4314.56 3928.53 5606.51 5740.65 3834.47 6349.67 6329.53 6101.86 4227.41 5993.0 4803.57 5966.42 4110.59 3332.49 5354.66 4214.44 5378.23 4787.97 3746.36 4981.43 6789.23 3989.7 4777.03 4246.61 5452.36 3804.5 4609.02 6486.37 4638.18 5498.42 3344.57 5220.76 7046.11 3427.63 4449.98 4863.97 6342.48 5756.75 5599.7 4587.67 4163.74 3665.95 4296.69 4095.75 3319.67 3603.51 5283.8 4076.59 5135.96 6464.15 5658.37 4972.17 6074.94 5491.37 4222.77 3783.54 5268.38 3475.67 5527.23 4805.33 7038.89 3863.67 4814.12 5067.56 6069.3 2735.53 5116.6 3747.03 5388.39 2783.85 5335.47 4356.49 4526.81 3994.07 4219.94 5907.46 4264.91 6740.71 5399.29 5971.22 6602.43 3568.28 6063.64 5996.66 4405.42 2995.67 3598.08 4599.81 5522.21 5698.23 7300.58 3608.06 6633.61 5217.95 4867.7 5484.36 4277.24 4075.28 5291.05 5161.1 4619.2 5166.41 5067.56 2596.96 5701.75 4350.15 4139.3 6541.45 4750.49 5078.31 5391.48 4923.43 5131.15 4847.14 3950.27 5116.66 3566.79 5374.67 4741.28 5069.89 4215.2 4157.29 6813.72 5327.75 4896.65 4946.23 4196.37 6448.66 5211.6 4453.97 6945.98 5138.2 3503.41 5783.48 4701.5 4504.35 4771.65 4840.44 5093.82 5951.81 3924.14 6918.35 4834.3 6238.32 6804.79 6471.42 6372.13 5369.5 4428.14 5404.01 5164.1 6016.19 4124.49 4479.11 5714.25 6685.4 5699.53 4850.06 6332.01 7044.29 4234.18 7085.01 5980.95 6193.08 3862.77 5887.01 5168.35 3185.39 3728.18 5633.61 5048.19 6799.23 4888.27 4592.15 6487.56 4854.11 5533.19 4998.22 5417.21 6104.26 5583.61 4986.71 7382.3 4022.56 3772.3 5522.75 4855.01 6208.9 4923.57 3340.09 6061.63 2279.05 4829.35 8137.11 5484.32 6650.77 4067.96 4824.12 7104.73 6162.3 3272.75 4264.54 3516.27 7043.44 4263.78 4643.9 5228.75 6047.14 5009.83 5210.38 5717.8 3629.44 5003.78 3299.24 6246.56 4061.6 2603.64 5107.0 6212.15 6502.97 4783.07 4852.58 6083.28 3556.79 5806.31 5456.71 7317.04 6412.67 7001.83 5012.97 4036.91 5589.37 5439.49 6639.64 5212.43 5454.12 6348.54 4066.57 5642.35 6357.47 5535.91 3230.13 6176.67 5325.96 5412.24 5016.02 4920.21 4581.37 4049.16 5851.61 3936.95 6153.94 6836.82 3858.17 4631.99 4740.98 5128.77 7122.87 5797.36 4243.26 4153.84 5119.86 5089.26 5084.17 4901.44 3776.8 5096.43 6156.21 2460.79 4653.83 6171.71 3628.89 6589.82 4668.88 5027.43 5867.64 4438.58 6059.93 5602.53 5073.02 6545.43 3472.91 6760.92 4989.2 4711.04 7144.05 4506.18 2970.9 6542.5 4383.47 5971.21 6318.23 4206.98 5156.76 6101.57 4891.38 4793.65 2949.12 5955.86 4532.89 4533.37 4848.46 5742.09 2779.99 2884.65 5887.38 5807.46 6942.34 3658.05 5478.11 4549.69 