# vtk DataFile Version 2.0
Time step 59
ASCII
DATASET UNSTRUCTURED_GRID
POINTS 5000 float
27669.2 41634.7 0
182938.0 42399.4 0
372012.0 41729.2 0
403650.0 42117.6 0
432478.0 42649.1 0
477063.0 42525.6 0
485844.0 42458.0 0
497601.0 42490.1 0
2398.29 44726.3 0
8534.15 44099.6 0
6062.55 47419.6 0
12439.0 43933.8 0
16747.6 43251.6 0
22243.6 44899.7 0
28519.6 47986.3 0
33205.1 44322.1 0
38185.3 44905.9 0
42703.9 45059.3 0
47472.2 44965.4 0
52137.1 45065.2 0
57004.9 43904.7 0
62763.5 44980.5 0
67994.7 45114.0 0
72702.5 44246.4 0
77500.0 44993.4 0
82500.0 44982.7 0
87407.7 44280.9 0
92500.0 45020.8 0
97192.5 45042.3 0
101292.0 44959.4 0
105946.0 44348.9 0
111936.0 44828.1 0
117850.0 45013.2 0
123330.0 45090.0 0
128345.0 45210.9 0
133428.0 44459.5 0
138124.0 45143.0 0
142500.0 45064.2 0
147500.0 44997.7 0
152501.0 44967.5 0
157589.0 44595.0 0
162561.0 44750.3 0
167010.0 44291.9 0
171830.0 43174.9 0
177733.0 43213.1 0
183533.0 47467.5 0
187393.0 44254.2 0
192498.0 45416.0 0
196079.0 44578.4 0
201747.0 43938.7 0
207650.0 44702.9 0
212984.0 44038.4 0
218128.0 45124.4 0
222479.0 45136.8 0
225794.0 44365.8 0
230434.0 44237.9 0
235810.0 45235.9 0
241170.0 43940.2 0
246502.0 45941.6 0
252680.0 43925.6 0
259052.0 44400.2 0
263773.0 45488.8 0
268740.0 44397.6 0
273935.0 44692.9 0
278881.0 43344.4 0
282030.0 46676.9 0
286325.0 44984.5 0
291717.0 45440.5 0
297319.0 43309.0 0
303664.0 44093.0 0
307730.0 46663.4 0
312126.0 44518.1 0
317929.0 45134.7 0
323245.0 45040.3 0
327581.0 45311.4 0
332206.0 44910.0 0
337223.0 44619.1 0
341019.0 45830.0 0
345896.0 44164.9 0
350686.0 46088.2 0
355258.0 45071.1 0
361815.0 43711.7 0
367954.0 45044.7 0
377031.0 43700.9 0
382609.0 44575.1 0
388132.0 43876.0 0
394019.0 43191.9 0
399200.0 44860.4 0
408587.0 43329.8 0
412474.0 44980.5 0
408388.0 47610.6 0
417500.0 45026.5 0
422737.0 43137.3 0
422128.0 47774.0 0
427271.0 44845.8 0
433429.0 47882.2 0
437541.0 45002.7 0
442088.0 43944.4 0
446251.0 43525.2 0
447602.0 47535.2 0
450665.0 44292.9 0
455208.0 44232.5 0
460242.0 44076.1 0
465793.0 44465.7 0
471628.0 43722.1 0
481305.0 45388.9 0
491674.0 43996.6 0
496837.0 47999.2 0
2284.56 49740.4 0
6738.88 52464.8 0
11087.3 48451.8 0
17332.6 49153.9 0
23005.6 50409.6 0
34969.4 49596.7 0
40341.9 49915.1 0
44464.7 50256.8 0
48279.9 48959.9 0
52500.0 50025.3 0
57995.3 49346.0 0
62850.0 50080.0 0
67505.2 49751.8 0
72115.8 49366.1 0
77500.0 50151.5 0
82116.1 49797.7 0
87907.8 49038.7 0
92500.0 50160.5 0
97183.4 49789.2 0
102467.0 49694.0 0
108243.0 48940.0 0
112500.0 50096.8 0
117500.0 50178.3 0
122500.0 50101.2 0
127727.0 49643.9 0
132494.0 49994.7 0
137520.0 50009.5 0
142774.0 49486.7 0
146926.0 49834.8 0
151937.0 49712.3 0
156860.0 48644.2 0
156244.0 53204.9 0
161296.0 49464.4 0
166509.0 48963.6 0
172971.0 48743.8 0
178375.0 48625.4 0
182187.0 52606.5 0
188604.0 48699.8 0
193571.0 49560.2 0
198250.0 48923.0 0
203920.0 49558.4 0
213692.0 48588.7 0
209357.0 49772.7 0
217601.0 50195.1 0
222032.0 49961.1 0
226801.0 48600.8 0
232205.0 49662.8 0
237686.0 50487.2 0
243283.0 50311.3 0
248462.0 50015.1 0
252678.0 50485.8 0
257263.0 49038.7 0
262325.0 49664.3 0
267061.0 49240.4 0
271610.0 48543.6 0
277075.0 48947.3 0
279878.0 53010.8 0
282828.0 50363.5 0
287500.0 50074.9 0
292913.0 49931.6 0
298250.0 48819.4 0
303119.0 49763.5 0
307441.0 49956.4 0
312501.0 50269.4 0
317474.0 50009.9 0
322433.0 49508.3 0
327500.0 50055.1 0
332500.0 50127.4 0
337713.0 49460.5 0
341414.0 53060.5 0
343308.0 48855.1 0
347752.0 49251.1 0
352668.0 49978.0 0
361440.0 49024.3 0
357754.0 49491.3 0
365113.0 48716.3 0
366513.0 52797.2 0
372930.0 48530.0 0
378819.0 48251.7 0
382004.0 49390.0 0
384354.0 52727.6 0
388375.0 48964.3 0
393554.0 49338.9 0
402999.0 48317.1 0
398136.0 49773.8 0
412865.0 48922.6 0
409244.0 53255.5 0
417520.0 49542.2 0
428327.0 49788.1 0
424121.0 52591.2 0
437510.0 50071.2 0
443214.0 48226.6 0
448276.0 52608.1 0
451946.0 48770.3 0
457177.0 48959.4 0
462429.0 50449.7 0
466599.0 49035.3 0
470193.0 50215.7 0
475181.0 49015.2 0
480797.0 50663.8 0
486589.0 48647.0 0
492077.0 50897.4 0
2238.62 55664.5 0
8050.23 58305.3 0
11843.3 54281.0 0
16323.3 54361.0 0
17752.4 58205.4 0
20502.9 54370.9 0
27043.9 54819.0 0
32616.0 54652.3 0
38264.0 54427.8 0
42970.8 54815.0 0
47589.1 53680.9 0
51800.7 55446.0 0
56554.7 54966.2 0
62115.3 54935.8 0
67697.9 54595.7 0
73695.3 54908.8 0
78211.1 55348.9 0
81954.5 54523.8 0
86960.3 54554.5 0
92531.5 54911.5 0
97548.4 54308.5 0
102630.0 55456.0 0
107924.0 53719.9 0
116732.0 54781.4 0
112494.0 54993.5 0
120857.0 54631.6 0
125864.0 54011.9 0
131158.0 55710.7 0
136445.0 55663.1 0
140992.0 53607.5 0
146305.0 54726.0 0
151834.0 56323.8 0
161703.0 55155.0 0
166528.0 56973.3 0
169996.0 53530.2 0
176293.0 54383.1 0
182233.0 58085.0 0
188048.0 54861.4 0
194261.0 54586.3 0
199972.0 54028.1 0
208111.0 54681.3 0
204288.0 55023.3 0
213300.0 53399.5 0
217709.0 55128.8 0
222564.0 54235.5 0
226872.0 53605.8 0
232444.0 55127.6 0
237422.0 54913.2 0
237875.0 58237.2 0
241792.0 55566.4 0
246841.0 54083.1 0
251784.0 55376.9 0
257738.0 53790.8 0
262720.0 54441.9 0
260336.0 58175.5 0
267490.0 53695.0 0
273047.0 53783.5 0
283554.0 55296.3 0
287215.0 55363.9 0
291016.0 54237.8 0
296734.0 53862.8 0
302233.0 54998.4 0
307700.0 54386.1 0
313207.0 55511.4 0
318188.0 54499.9 0
322509.0 53513.5 0
326812.0 55395.0 0
336512.0 54125.0 0
331856.0 55110.4 0
346846.0 53637.7 0
351893.0 54813.0 0
356026.0 53365.4 0
361261.0 53726.4 0
357349.0 57322.9 0
366550.0 57489.9 0
371101.0 54670.6 0
377673.0 54186.7 0
382813.0 58243.7 0
392424.0 54161.6 0
388338.0 55915.8 0
397217.0 54121.4 0
402858.0 54558.1 0
414413.0 55809.8 0
419145.0 54231.4 0
427686.0 55627.4 0
432250.0 53505.5 0
437342.0 54242.3 0
442359.0 53463.6 0
446524.0 57604.9 0
450848.0 58101.8 0
454179.0 54174.4 0
458993.0 55224.2 0
463188.0 54987.2 0
467519.0 55093.7 0
472372.0 53537.7 0
477746.0 54485.6 0
482622.0 55358.6 0
487506.0 56461.8 0
491506.0 54958.8 0
496591.0 54567.9 0
2182.12 60078.6 0
13472.0 58907.9 0
11905.8 62648.1 0
17161.8 63384.7 0
22417.4 58744.5 0
26989.1 60741.8 0
32073.0 58939.7 0
37589.6 59632.6 0
43206.3 59878.0 0
49063.6 58472.3 0
53807.2 60146.7 0
59223.1 59645.1 0
63617.0 59267.4 0
68064.9 60267.5 0
72603.0 59784.4 0
77068.8 59268.1 0
82136.1 59544.7 0
87334.0 59728.3 0
92269.2 60242.1 0
97732.1 59660.7 0
102767.0 60912.4 0
107685.0 59218.1 0
113113.0 59322.8 0
118139.0 59257.5 0
123420.0 58619.2 0
127500.0 60175.6 0
137738.0 59577.0 0
132691.0 60538.7 0
142524.0 59726.4 0
148002.0 59334.2 0
156828.0 58598.8 0
153420.0 60977.1 0
160406.0 59967.9 0
164429.0 60676.8 0
170842.0 59559.3 0
177032.0 60951.1 0
186625.0 60495.7 0
191646.0 59982.6 0
197223.0 59313.5 0
203055.0 59167.3 0
208748.0 61027.4 0
214360.0 59070.3 0
218717.0 60377.8 0
222020.0 58493.1 0
227505.0 59156.1 0
234333.0 59506.9 0
237943.0 62973.1 0
241749.0 60167.0 0
246210.0 59268.4 0
251518.0 60635.3 0
255872.0 58506.0 0
262636.0 61750.1 0
266349.0 58377.1 0
271756.0 60052.3 0
278361.0 58513.6 0
284358.0 60035.3 0
288758.0 58517.3 0
292983.0 60233.1 0
298941.0 60162.7 0
303985.0 60395.2 0
307500.0 60219.1 0
316257.0 59214.2 0
312166.0 60037.9 0
321079.0 58738.3 0
325852.0 60327.7 0
329893.0 58936.9 0
334356.0 60934.1 0
339780.0 58451.4 0
346088.0 59892.3 0
352844.0 60388.6 0
361674.0 59714.1 0
367104.0 62397.2 0
371934.0 60304.6 0
377880.0 61638.1 0
387369.0 60101.2 0
393045.0 60833.9 0
399508.0 59727.8 0
408059.0 58604.4 0
404321.0 59754.7 0
408162.0 63454.4 0
412346.0 60273.4 0
416948.0 59613.6 0
421365.0 60859.2 0
425659.0 59254.7 0
431067.0 59697.4 0
437114.0 58437.2 0
436128.0 63421.9 0
441811.0 59049.2 0
448332.0 63115.9 0
455406.0 59947.2 0
461200.0 59636.0 0
466975.0 59419.5 0
472593.0 58497.1 0
478847.0 59984.8 0
484704.0 60499.7 0
489148.0 61223.9 0
492124.0 58814.2 0
496754.0 61210.4 0
1482.51 64752.8 0
7155.46 64613.1 0
12671.6 67153.3 0
23053.4 64128.6 0
30224.5 63479.3 0
28648.7 67525.6 0
34875.2 64273.5 0
39764.5 63696.7 0
39135.8 68537.7 0
43683.6 65530.5 0
48583.4 63696.7 0
53135.3 66148.1 0
57213.7 64037.3 0
63064.5 64042.4 0
68310.0 65443.1 0
73401.6 63842.5 0
72212.1 67721.1 0
78302.7 64416.5 0
83594.0 64485.5 0
88398.4 64545.6 0
92509.0 65084.2 0
97237.0 65076.1 0
101195.0 65141.8 0
105585.0 64734.3 0
111306.0 63906.7 0
116640.0 64515.7 0
122098.0 63809.3 0
126931.0 64217.1 0
131218.0 64919.3 0
136577.0 64127.1 0
142212.0 65419.8 0
147012.0 63611.3 0
151801.0 65543.6 0
157942.0 64536.7 0
167047.0 63551.3 0
163657.0 65162.2 0
171003.0 65567.4 0
176727.0 67242.4 0
182933.0 65005.1 0
193693.0 64068.2 0
189204.0 64901.1 0
198249.0 65200.9 0
203174.0 64268.2 0
207321.0 66408.0 0
212115.0 65279.2 0
216320.0 63687.4 0
221175.0 64027.1 0
226331.0 65794.0 0
231983.0 64005.3 0
236016.0 67955.8 0
242843.0 64823.7 0
248029.0 64346.4 0
252897.0 64663.4 0
257727.0 63688.2 0
262829.0 67329.1 0
267587.0 64329.0 0
272697.0 65937.4 0
278480.0 65168.0 0
283573.0 64622.0 0
282084.0 68552.3 0
288835.0 63837.9 0
293487.0 64831.0 0
297506.0 66208.3 0
302639.0 64700.5 0
307114.0 65060.5 0
311941.0 64779.1 0
316965.0 63651.0 0
322295.0 64333.8 0
330937.0 64451.8 0
327150.0 65198.3 0
341522.0 63945.2 0
337123.0 64830.6 0
346657.0 65859.9 0
351576.0 66039.0 0
355549.0 68164.3 0
357892.0 63901.2 0
362982.0 64688.3 0
370163.0 65846.0 0
374540.0 65860.1 0
383272.0 64254.9 0
383421.0 68393.3 0
388210.0 64281.6 0
392170.0 67080.3 0
397892.0 65665.0 0
403054.0 63730.4 0
411971.0 68038.6 0
414685.0 63921.4 0
417929.0 65174.5 0
422500.0 65719.8 0
427477.0 63703.9 0
427295.0 67957.4 0
431264.0 65126.2 0
441997.0 64709.5 0
454028.0 65108.1 0
459446.0 65248.7 0
464982.0 64526.7 0
473889.0 63713.4 0
469647.0 65378.5 0
477664.0 66786.8 0
481986.0 64938.3 0
486773.0 64834.6 0
492177.0 65391.4 0
497457.0 66946.0 0
2749.69 68790.9 0
7838.85 71133.9 0
13610.1 73001.0 0
18088.6 69154.9 0
23745.7 69886.9 0
28782.9 72868.6 0
33633.5 69830.1 0
43746.6 69740.3 0
48695.4 69666.4 0
54182.6 70852.6 0
59720.8 69048.6 0
64872.2 70148.5 0
68290.2 69632.2 0
76319.1 69311.8 0
71705.4 73057.1 0
81940.2 69906.1 0
[...]
POINT_DATA 5000
SCALARS Radius float 1
LOOKUP_TABLE default
5782.6 5120.0 5529.52 6324.23 5191.63 4861.06 5320.28 4797.52 4796.58 3979.26 4298.67 3471.03 5253.55 5820.48 7034.11 4862.21 5113.21 3929.19 4107.03 4478.15 5379.87 5925.6 4501.51 4792.73 4736.58 4931.38 3485.26 4329.05 4151.94 4049.23 5337.48 6124.89 5708.81 5252.48 4780.03 5495.39 3996.0 3856.1 4665.12 3383.4 4133.88 4834.9 3850.77 6044.04 5415.48 5085.53 3863.18 2356.98 4998.37 6182.6 5492.18 5258.36 5061.3 3642.12 3163.97 5812.43 5122.66 5906.14 5484.19 7513.1 5254.28 4436.4 5733.48 4672.91 5580.89 3588.44 5645.7 5176.86 6810.52 5840.26 3672.51 6110.27 5561.06 5073.35 3615.22 5670.04 4380.59 3589.27 6716.79 3607.45 5759.91 7613.27 4951.03 5255.32 6037.08 5096.78 6756.95 4129.43 3843.58 3320.52 4727.24 4194.5 4270.53 5082.47 5344.25 5445.87 4593.7 4150.99 4216.92 4177.94 4742.68 4344.58 5634.83 5495.84 6268.1 5374.51 6739.08 6326.39 4569.12 5873.69 5960.66 6608.73 5011.84 6261.42 4502.5 3771.48 4043.57 4271.69 5681.38 4138.42 3708.04 5513.6 3240.09 4556.36 6082.81 3191.99 4685.34 5601.05 4929.8 3586.91 3103.0 3554.9 4015.92 5542.21 4487.31 3936.02 4044.71 5980.74 4094.62 5109.54 4927.02 5546.39 5325.36 5484.83 5538.89 5351.6 4730.36 4715.55 5867.73 3951.75 5013.56 4499.64 4375.68 5542.27 5054.98 6030.06 5170.02 3557.27 4927.31 4688.68 4402.52 4517.56 4182.53 5903.42 3968.64 3955.56 3761.32 4118.05 4366.19 5553.16 2938.66 4940.78 4231.61 4008.92 3942.53 3379.84 4827.82 5227.21 3997.1 3260.67 5123.52 3038.33 4392.68 4333.2 4295.38 7199.21 4523.7 2240.39 5923.5 5091.39 5293.9 6142.94 3912.37 4602.25 6691.39 4790.08 4763.45 5344.0 3815.26 4704.72 6048.7 4571.7 5896.46 5022.8 3784.5 3780.23 6481.79 5224.12 7042.12 4819.73 4471.58 6098.14 4962.09 3999.48 4203.26 4359.62 6946.21 2586.12 5433.8 4011.77 5499.11 3633.87 5922.5 5198.77 5987.17 6013.14 2765.2 4901.41 5110.37 5664.98 4382.74 5927.43 4651.28 3693.63 4384.42 4516.43 5481.78 5637.59 4937.14 5043.05 5816.2 5693.81 6483.19 3829.13 5945.65 6759.9 5418.62 7021.47 5416.38 6059.59 4955.55 2720.68 5701.86 3563.63 4238.81 4468.59 5885.03 2837.58 3871.88 5325.02 5200.76 5017.13 4862.64 5185.34 3673.74 4432.58 6684.56 4688.67 2635.86 5292.64 6166.5 5065.13 5936.02 5305.17 4861.08 4003.05 5390.22 4805.87 4712.33 5697.78 4667.36 4091.31 6372.62 4254.17 5090.24 5615.42 7565.34 5530.87 4612.68 4281.49 4973.83 6342.25 4840.84 5135.69 4020.32 6045.46 4245.72 5908.1 4541.21 4164.68 6133.92 3719.84 4178.4 3095.48 4166.08 4123.6 4850.14 5163.55 3382.7 6817.32 4319.79 4472.17 3637.61 6222.42 5188.81 4730.41 6057.22 5062.71 6125.34 4527.08 5347.48 4850.01 3970.25 5147.67 3979.82 5011.31 5138.31 5264.06 4659.59 6327.9 4048.37 6355.42 4362.19 5690.56 4948.92 3115.91 3307.12 4493.48 5924.89 4002.16 4174.52 4138.16 3486.22 4684.5 6230.49 6458.82 4601.27 5493.32 5740.68 5926.61 6051.14 5836.15 3261.21 4345.55 6704.06 3653.41 5600.93 3856.01 5246.2 4390.66 5279.39 4827.23 5205.43 6116.18 7447.37 4924.6 4385.06 4733.32 7184.19 2899.43 2924.37 4290.3 3867.67 5399.73 4660.72 3888.21 5891.05 6038.78 6902.81 6644.76 5629.19 4786.6 5740.84 6445.94 4310.18 7134.64 5978.9 4187.56 3629.62 5514.76 4997.27 4301.06 4877.67 4290.14 6562.18 4156.38 6006.16 5316.75 7055.53 5669.65 5934.22 5624.49 5762.59 7092.87 4666.81 3703.1 3954.91 6471.55 2965.01 6643.85 5501.93 5654.31 3745.84 4938.74 5690.26 4156.2 5607.14 4497.59 5965.78 4374.35 4810.12 5643.58 5215.05 4292.06 3821.72 5577.04 5006.58 4602.86 3688.8 4548.16 3369.23 5449.18 5492.26 5244.78 5762.84 3937.74 4749.8 6084.86 5478.92 4778.34 5551.36 6894.71 3091.3 4414.54 5789.98 6138.47 7054.71 3641.64 5489.43 5747.75 4277.89 5054.25 4796.33 4195.44 5539.32 5360.19 6496.85 4794.96 4874.39 5541.59 4124.71 5728.85 6337.56 4911.47 5803.39 5863.59 4381.97 4024.3 6257.19 3255.82 5242.73 2812.98 4065.69 5603.15 4695.45 6052.7 3921.18 3798.62 5308.1 3666.57 4907.89 4937.02 4073.93 5655.21 4645.41 4433.59 4320.28 5542.14 2739.94 4218.06 5480.13 6308.71 4716.19 6405.76 3456.98 3498.2 5105.16 3066.13 5448.61 4302.5 6009.88 5013.67 5826.04 5339.78 4970.88 4143.78 4763.66 4636.5 4940.42 5923.4 5085.71 5499.39 5644.82 6343.14 5463.38 5945.21 5750.71 5696.88 3923.03 5975.63 5252.34 6396.74 4138.46 2775.04 4986.77 6898.19 6318.18 5586.81 4621.75 3948.17 4551.24 5358.59 4220.88 4515.71 6519.71 6640.13 5082.6 5810.84 4230.54 5094.44 3748.24 4655.49 4467.94 4933.21 4850.81 6038.14 2540.31 6029.66 5527.54 5573.7 5697.4 4727.62 4270.95 4055.8 7325.81 5280.17 6425.26 5143.58 6186.19 4839.34 5083.08 2980.99 6834.49 5525.39 3998.5 5938.34 6394.38 5555.28 5169.36 4737.14 4686.65 5834.74 5556.96 5788.23 5581.75 6392.01 3599.45 6730.19 4907.06 3735.44 5163.9 6043.3 5952.75 6332.36 6122.55 4931.53 6155.31 4223.33 5911.67 3323.28 6695.82 5835.78 5794.24 4678.38 5050.65 4827.33 5206.48 5513.57 5729.23 5226.0 3365.82 4538.95 5965.15 4780.2 6090.91 4946.42 5019.93 5081.78 6116.33 6263.44 5774.97 5462.21 5470.77 4831.47 4643.85 4004.04 6062.05 4289.17 5564.02 4274.61 2965.79 4410.55 6035.6 5137.34 4481.53 5330.45 4581.13 3856.59 3610.4 4219.07 6387.01 5367.52 3092.35 4322.15 5210.03 4714.54 3629.96 5478.47 5351.39 6142.37 6061.47 5375.47 4723.12 5120.49 5201.36 5262.61 6302.8 5409.61 6038.2 4005.44 5206.78 5555.88 6732.43 5028.96 3866.16 6362.12 4484.76 4840.01 5611.2 7933.0 4455.12 5173.87 4894.16 5380.13 5711.87 5118.27 4941.22 5932.23 5791.61 3369.13 4479.66 3043.85 5367.2 5461.13 4726.76 5839.13 5495.68 5489.34 5002.48 5708.14 5537.72 3920.42 8332.24 4553.56 5329.64 6049.55 5709.62 4127.74 2476.04 5133.97 3942.07 7443.72 3937.08 5371.02 5260.34 4709.35 6586.45 4373.3 4750.78 4163.5 5724.64 5078.86 5100.1 3561.29 4963.34 3295.83 4459.28 4260.92 6250.23 5960.56 4118.84 4020.95 6313.06 3474.39 3493.7 6470.3 4200.03 5082.74 6915.83 6072.45 7099.43 5526.14 5198.29 5423.0 5077.33 4746.52 5413.79 6338.89 6202.55 5025.39 5893.5 4547.19 3320.11 5030.91 6022.17 5119.37 3982.23 6163.38 4566.18 3459.9 4964.09 4809.42 5024.9 4306.53 5659.17 5094.81 5972.06 5713.22 5861.71 4359.04 3183.98 3794.63 4524.28 3778.1 5152.36 4511.82 5826.64 4220.65 6820.42 4816.2 6321.41 4896.52 4751.02 3372.79 5184.56 5282.64 4715.72 4669.66 4808.52 5046.33 5607.24 5053.92 6352.26 3847.38 3818.59 4863.72 6623.85 4262.82 5102.36 4342.9 5065.11 5069.84 4051.44 4241.89 5054.74 5941.72 5991.09 5126.91 6600.94 4788.58 6155.1 5876.71 6262.72 5029.78 6515.84 4888.6 2990.77 4739.14 4918.77 4371.99 4219.78 4188.3 3885.86 5235.29 4479.94 5453.3 6413.02 4863.27 5862.86 6049.79 5374.98 4719.7 6939.12 4735.33 5411.85 5092.37 6444.77 6314.07 4287.63 5315.4 6449.45 3975.31 3689.45 3824.16 5125.78 5572.95 3868.18 6723.16 5584.06 7111.16 3817.13 5507.24 6851.54 4583.31 4503.89 5806.08 4853.39 4997.27 4093.08 4449.22 5543.27 4717.05 5287.2 6135.57 5998.38 4312.67 5423.8 4270.24 4989.15 5017.78 5015.69 6175.81 4727.24 6677.09 4305.57 6959.81 4829.35 5201.67 4424.7 4089.76 4754.05 5526.55 3192.41 6084.93 5215.15 4987.87 3315.57 4739.42 5804.71 4764.96 5727.3 4242.52 5281.28 5356.51 4277.88 4087.15 3057.03 4143.08 7500.97 3948.23 5228.18 5787.31 3927.99 5868.82 4978.31 4050.9 4099.77 4537.32 4981.9 4656.78 3600.43 4906.82 5131.24 5196.67 5004.23 6496.67 5474.8 6607.87 3664.11 5117.47 4925.63 5882.65 4434.19 5187.7 4623.61 6261.75 5177.64 4255.31 4094.73 4407.9 3492.19 4584.5 5122.63 4703.08 6345.13 5274.19 5516.95 4406.4 4413.85 4844.57 4027.46 4470.98 5776.37 4516.28 3921.08 3627.82 4044.45 5262.19 5344.43 4373.47 5045.38 5350.88 5372.61 3686.21 6480.17 5023.15 4377.07 3813.22 5101.59 5570.3 4336.42 5243.29 7589.94 3130.65 5628.24 5856.11 3327.49 4109.88 4234.94 4562.29 5013.13 5080.66 3417.33 4926.42 4164.13 4642.34 4520.1 4947.52 5874.89 4293.03 5813.4 4389.21 3791.79 4128.98 4925.44 4951.47 4307.28 3697.96 4723.48 5538.93 4899.11 5020.12 4745.45 2631.9 6255.18 4668.71 4758.21 7228.46 6362.14 6719.88 5978.82 5266.5 4523.88 4066.38 4948.98 4414.48 5227.52 4729.43 4092.24 5163.02 7144.24 5687.83 6442.69 6320.71 4648.04 3464.83 4721.32 4305.16 3293.56 3163.78 5092.28 5274.14 4903.82 5746.28 4082.47 5511.6 4338.08 4378.3 6134.99 4989.56 4718.54 4440.57 5548.29 6766.43 2315.64 5916.16 4390.41 5226.56 5599.49 5313.22 3905.51 3999.94 4864.22 3901.8 5759.46 5083.41 4190.31 5678.96 4244.9 6070.58 4285.32 6034.41 5452.83 5130.91 5402.24 4519.22 6445.22 3844.9 3695.36 4564.34 3963.86 4871.44 3848.93 5076.35 4306.11 6020.48 5935.47 3402.32 5903.66 4528.49 5004.67 5365.89 5992.26 3960.8 4511.54 5070.39 4980.85 5714.58 5110.45 5208.32 5248.77 3296.27 4083.97 4713.25 4607.02 5153.74 4528.09 3895.51 4165.81 5441.96 6291.51 5174.89 5882.89 6246.22 4188.32 5246.61 4100.38 3746.31 5344.77 5027.98 5097.87 4278.07 7267.18 6256.02 5320.92 5269.18 4305.43 4406.1 5034.59 4942.77 4263.33 4454.63 5080.18 5912.61 3279.1 4403.98 4560.84 5233.78 5776.57 4562.74 5683.26 5598.74 5139.5 7493.3 4814.55 3527.05 5698.77 2477.07 6413.11 5529.42 5257.12 4965.89 5659.95 4152.85 2908.7 4453.64 6415.61 4517.73 4687.64 5469.47 4419.71 5660.16 3838.47 2588.37 6736.03 6235.57 3623.87 3087.09 6934.37 6113.95 4050.08 4097.57 5017.5 5563.79 6171.13 5511.88 4512.11 7055.42 5486.68 6048.86 5100.25 5490.43 5022.28 5197.52 4959.34 4948.5 4527.02 4531.14 5013.42 3838.56 5651.07 6375.99 5200.05 5234.29 5313.66 5419.37 4466.03 5409.33 4898.94 5196.0 4923.9 4973.78 3329.99 3947.47 5091.68 4204.84 6243.0 6673.96 3556.85 3161.47 3435.9 6390.78 4288.3 5370.52 4788.87 4652.29 4495.87 5774.81 6022.72 5498.32 5527.33 5346.27 6475.1 4969.21 2691.29 2845.98 4880.14 5289.52 5314.85 5941.4 5450.44 6510.17 5742.65 5592.32 5381.16 5565.13 6193.35 6086.96 3701.27 5653.9 5046.21 4929.14 5894.61 3979.54 5304.13 5944.09 5833.06 4923.41 4497.31 5384.76 4428.78 5243.43 4537.14 5551.9 3757.34 5329.59 4888.12 5037.06 4541.8 5175.29 5842.56 5887.15 5412.31 7480.41 3423.15 4890.5 3981.07 5452.42 5328.22 6853.85 2395.5 3497.9 5941.61 5782.48 6248.6 5683.61 3836.45 6894.26 4986.51 5339.38 5178.99 5383.07 4591.87 4790.78 4247.15 4502.18 6552.22 4602.85 6248.81 5872.05 5273.35 4091.8 2651.49 4645.58 5181.4 5512.23 5275.32 5985.29 4178.15 4613.31 4733.04 6119.09 5788.66 7531.29 5069.25 5048.89 4755.47 5935.03 3991.03 5475.8 5314.69 7435.25 6826.57 4249.46 5965.81 3702.37 4643.31 6917.52 5402.21 4989.09 6718.19 4982.31 3848.54 4307.48 4425.84 5331.02 4871.96 4863.23 4402.67 4470.61 4631.83 4384.88 6887.27 6008.49 4220.46 4806.34 4287.53 5612.21 5945.08 4968.03 3306.14 5490.58 4863.79 4702.06 3830.46 6031.67 4689.15 6138.12 4655.16 5409.66 4345.67 3867.19 4765.72 4642.66 4039.91 4752.14 5276.7 6119.63 4950.97 5512.16 3197.63 4863.96 5191.08 5203.08 5374.07 5163.77 4488.85 3731.84 4579.69 4901.07 3554.48 5186.3 3436.15 4151.76 4020.4 3493.47 4721.02 4596.75 4933.65 5443.58 4558.46 5805.86 4049.02 4470.4 5311.03 5255.12 6169.11 5615.35 4027.09 6422.84 5801.99 5379.09 5210.48 4962.77 4853.02 6259.23 5088.44 5670.2 4711.62 4247.23 4114.24 4268.65 5349.31 4694.83 4649.22 5509.42 4354.08 4256.43 5936.36 2682.24 4520.62 3903.75 5229.48 5475.7 4485.99 5127.16 4244.99 6050.81 5543.46 6185.89 3997.96 4750.17 5660.85 3460.94 2330.66 3990.25 4177.19 3691.0 4752.51 3587.05 6229.37 4236.14 4407.87 5282.91 3797.33 7256.35 4800.69 6566.1 3555.86 6386.78 4996.99 4456.39 4896.39 6081.14 5480.83 4607.85 5128.57 6000.7 3169.67 5604.21 3361.92 6710.88 5395.14 3967.48 6213.04 5235.11 6622.11 3685.13 6790.73 5251.4 5097.69 5857.79 6543.13 5149.72 5036.58 5464.25 5411.02 4752.9 4287.16 5199.44 4062.5 4435.51 4588.7 5683.95 3766.55 6027.62 5010.2 6496.52 5005.85 4216.17 6484.17 4938.72 4254.37 3374.08 4031.78 6098.1 5708.99 5687.85 5346.68 5296.29 4611.53 4896.11 4285.66 5172.53 3872.61 4135.62 5534.94 7644.38 7552.94 6101.92 5323.3 4998.21 4635.6 4662.56 5166.79 2976.22 3405.98 5394.55 5094.52 4681.72 4946.74 5996.33 5928.32 5415.19 4612.62 4016.18 3619.07 5526.75 4275.57 5435.74 6385.23 5327.45 2983.99 5560.26 6363.92 6205.93 4439.35 5830.72 6184.4 3758.07 4373.45 4082.57 5733.62 5169.9 5282.51 4460.92 5945.89 4042.28 4105.55 4421.12 4340.76 5254.49 6065.22 4221.28 5514.84 3633.79 3914.2 5421.53 5937.08 6070.3 5233.29 4312.56 4612.06 5204.04 4750.58 5926.11 6667.68 5767.9 5211.38 5089.62 4590.55 4741.26 5920.32 4255.85 4732.09 3988.3 4356.25 4216.95 5776.96 5486.48 5301.47 4617.55 3645.12 5424.88 5415.85 8659.64 5469.13 4233.8 5765.42 6123.03 5966.61 5711.11 4575.94 3546.71 5768.57 5564.23 5950.04 4231.83 2435.33 6401.43 4074.48 4558.47 5020.71 2681.29 5997.88 5094.48 5839.71 4238.4 4318.48 6132.95 5266.22 4860.33 3685.13 6004.68 4051.34 3361.26 6799.4 3627.55 6239.84 4256.67 5865.39 3457.48 3931.07 6079.11 6430.39 5417.15 3688.16 3949.6 4945.39 6326.18 3950.63 5661.62 6631.19 6648.68 4467.04 5626.61 5817.25 2614.4 5061.98 4537.6 4923.24 4419.61 7177.44 3828.81 5309.98 5255.18 5460.65 3004.16 4767.78 5235.17 4779.5 4929.75 4435.36 6649.96 4303.19 5784.3 4256.57 6088.68 4643.56 4135.08 5620.74 4778.82 6124.08 5467.84 5053.95 5266.01 5253.37 6515.8 5869.4 3685.65 3701.16 4186.6 5895.77 5750.07 6136.49 4757.74 6045.67 4209.49 5742.74 3821.94 4244.21 4947.24 3875.05 3540.11 6200.54 5148.58 4199.45 7234.66 6599.66 4055.54 6098.95 4997.83 4893.49 5325.44 5021.88 5956.65 4200.09 4498.25 4188.87 5151.21 3735.24 6574.95 6333.29 5731.57 5576.92 6408.83 3930.79 4004.35 5226.97 3312.06 5754.18 5180.76 3418.99 4480.95 5278.36 4409.63 5521.25 4427.28 3082.32 5370.85 5949.46 3658.37 7440.72 5376.71 5703.6 4807.28 4867.08 4266.03 4713.74 4220.03 5407.78 4084.49 5449.46 6179.96 6632.99 6113.54 5147.36 6260.79 3963.76 4563.46 6553.94 3062.43 5726.66 5426.78 5652.0 5463.41 5225.33 4237.98 6439.37 6045.22 4614.3 5134.39 3532.3 5769.98 5442.32 2221.99 3580.58 4863.01 2775.69 5356.79 4785.25 5657.36 3619.79 5029.47 6306.21 2978.76 2040.66 7016.27 5884.9 3876.21 5689.26 4916.22 4992.42 6022.7 4940.84 4833.46 4809.67 7248.4 5280.12 3946.28 5984.81 5439.9 5367.73 4640.06 4652.01 3456.47 5471.74 5421.64 4858.51 4207.54 4886.12 6419.12 4976.12 4817.16 5453.98 3991.42 4388.63 5102.75 4597.29 5931.77 5938.17 5398.64 6817.57 4477.04 3614.96 3886.68 5703.74 5662.55 5737.92 4360.23 5365.24 5293.51 4763.96 4446.06 3450.93 5008.63 5132.68 4993.35 6218.95 3661.9 5222.16 5107.23 3178.54 3776.94 5558.68 4765.02 5629.39 4448.13 2684.03 5070.29 4768.61 2261.36 5075.55 5280.69 6923.84 5227.59 5453.6 5703.07 5294.77 4662.43 4630.82 4043.66 5528.53 6799.88 4540.86 5990.52 4835.83 2967.38 5604.35 4159.35 6477.91 3091.67 4081.97 5401.99 5580.92 5973.33 5067.46 3583.21 2511.46 4009.62 4011.37 6505.78 5461.55 6519.43 5876.64 5424.46 4857.84 4908.49 4962.21 4858.44 3468.42 4673.35 3809.69 4771.13 5297.19 4351.38 5550.75 5933.7 4444.97 3498.16 4247.69 4409.27 4514.39 4588.99 4321.21 3548.39 4344.34 3673.28 4928.27 3583.49 3375.28 5625.65 4301.61 6107.89 4446.84 5660.55 5148.08 4834.87 4514.79 5760.22 3672.21 2216.82 4795.43 5097.95 5108.06 3573.73 4693.52 6853.04 4745.43 5831.96 4747.55 5464.68 3056.7 3755.95 6234.32 4586.19 5323.91 4270.74 6293.89 6595.03 4558.15 4983.39 5366.52 4690.55 5136.08 5533.42 4802.32 4010.57 4599.38 5246.47 6157.04 6191.29 4522.21 7422.36 5506.19 6719.94 4950.67 5832.37 6166.29 4642.93 5409.63 4263.16 4709.05 3077.84 6109.49 4813.08 5860.67 5332.65 3764.1 5413.31 6316.56 4332.87 6420.81 4715.58 4450.7 5151.52 5369.08 3101.75 4347.74 4518.04 5291.9 4766.06 2081.58 4874.18 3298.2 4270.15 6865.76 6449.64 6464.8 4406.05 4684.44 4749.59 4680.94 5799.69 5571.72 3208.96 7051.9 4184.23 4608.41 4144.57 5980.59 6834.41 6226.14 5466.33 3000.29 5721.05 4209.31 5718.28 6242.79 5950.45 5713.03 5849.65 5052.84 4366.74 4165.21 5297.16 3184.64 4936.96 5206.33 5530.49 5653.03 3718.69 6192.0 4509.89 4940.28 6752.75 5269.38 3004.34 5607.3 2928.82 4914.45 4811.76 4222.4 4000.43 4698.87 3420.08 4568.41 4912.04 3624.7 4539.07 4691.91 4475.83 2685.81 4510.8 5591.76 5889.35 4585.31 5010.04 6625.18 4570.98 5097.45 2761.07 5737.75 5742.47 3778.02 6552.21 5533.72 7132.12 3678.08 5518.57 4187.31 5463.48 3240.51 4527.99 5161.01 4376.7 4298.15 5190.61 4628.4 8325.01 6051.83 4440.81 5941.9 3973.12 6642.76 6024.75 4497.78 5567.93 5987.42 4442.22 6451.33 4669.06 3012.99 6400.08 4743.59 5208.14 3317.83 4396.25 3763.05 5092.24 5549.49 3918.87 5423.42 6605.86 5012.5 5435.19 7093.13 4953.1 5818.95 4093.99 3604.14 3940.49 5089.1 5828.35 5876.72 5236.43 5285.07 4884.59 4680.14 4083.79 4187.94 5021.77 3796.15 5599.29 4801.8 7216.98 5271.02 4601.74 5088.57 5134.67 3852.6 4215.0 4603.5 4481.76 5452.78 5065.26 4304.41 5885.28 4286.17 6579.31 5323.55 3022.6 5375.1 5313.12 5351.56 4661.03 5160.59 5262.35 4320.42 4255.34 5064.79 5480.3 4394.56 5896.26 4275.07 5388.78 5825.38 4185.61 4047.87 4573.72 5099.21 4917.99 4367.78 5417.8 5146.37 5670.0 4836.16 4232.16 5300.96 5151.11 5680.94 5730.33 5545.46 5581.55 5193.01 4543.1 6550.44 3860.83 3764.06 4523.39 5278.56 5434.47 5829.22 5631.14 4243.79 5811.18 5433.65 4008.15 4887.76 4811.32 4286.49 4437.07 6184.88 5829.32 6405.0 5551.95 5789.55 2275.45 4633.05 4901.2 4383.56 4990.79 3562.79 5166.79 4516.53 4122.92 5079.22 5381.54 4452.54 5810.77 2711.19 5474.15 4028.32 4099.92 3858.06 4511.7 4478.6 4304.63 5263.27 6300.92 4173.54 6038.68 5046.12 4807.4 7013.17 3805.67 4590.01 6101.86 6506.86 5993.0 5580.34 5966.42 5775.31 4706.5 3332.49 5354.66 4647.67 4214.44 5375.12 4356.36 4787.97 4892.44 3746.36 5578.94 7610.49 4777.03 3684.56 6028.09 5452.36 4172.6 3804.5 5498.42 3984.88 5318.53 4732.09 4281.98 7165.9 5344.83 7509.24 4146.81 6101.13 5599.7 6969.28 5636.4 5698.96 4350.12 4095.75 5227.02 4298.45 5222.51 6609.84 4344.51 5135.96 3834.43 3781.77 5658.37 4707.06 6074.94 3474.5 5491.37 4250.88 6348.03 5732.27 3475.67 4792.39 7038.89 5146.37 6917.62 4013.38 5067.56 6137.8 4343.78 5263.3 3352.35 4909.65 3747.03 6523.86 2783.85 7693.4 4326.48 3994.07 4219.94 5907.46 3449.37 5491.9 4264.91 5399.29 4659.16 4909.31 6522.59 5711.62 4798.17 5425.98 6479.39 2895.63 4997.91 4599.81 4714.83 7519.2 6355.68 5484.36 3953.55 4277.24 4063.9 4469.54 4314.56 3928.53 5606.51 5740.65 5067.56 3834.47 6349.67 6329.53 4227.41 4803.57 4923.43 4110.59 5131.15 4847.14 3950.27 5116.66 5378.23 5374.67 4981.43 6789.23 3989.7 5069.89 4215.2 4157.29 4246.61 6813.72 4609.02 6486.37 4638.18 3344.57 6448.66 5220.76 6945.98 5138.2 7046.11 3427.63 4449.98 4863.97 4504.35 6342.48 4840.44 5756.75 4587.67 4163.74 3924.14 3665.95 4296.69 6238.32 3319.67 3603.51 6471.42 5283.8 4076.59 4428.14 5164.1 6464.15 4972.17 5699.53 4222.77 3783.54 5268.38 5527.23 4805.33 3863.67 4814.12 6069.3 2735.53 5887.01 5116.6 5388.39 5335.47 4356.49 4526.81 6799.23 6740.71 4854.11 5971.22 5533.19 5417.21 6602.43 3568.28 6063.64 5996.66 4405.42 2995.67 3598.08 5522.21 3772.3 5698.23 4855.01 7300.58 3608.06 4923.57 6633.61 5217.95 4867.7 2279.05 4075.28 8137.11 5291.05 5161.1 4619.2 5166.41 4067.96 2596.96 5701.75 4350.15 4139.3 3516.27 6541.45 4750.49 5078.31 5391.48 5009.83 5210.38 5717.8 3629.44 3566.79 3299.24 6246.56 4741.28 2603.64 5107.0 6212.15 5327.75 4896.65 4946.23 6083.28 4196.37 5211.6 4453.97 3556.79 3503.41 5783.48 4701.5 7001.83 4771.65 5589.37 5093.82 5951.81 6918.35 4834.3 6804.79 6372.13 5369.5 5404.01 6016.19 4124.49 4479.11 5714.25 6685.4 4850.06 6332.01 7044.29 4234.18 7085.01 5980.95 6193.08 6836.82 3862.77 5168.35 3185.39 3728.18 5633.61 5048.19 4243.26 4888.27 4592.15 6487.56 4901.44 4998.22 5096.43 6104.26 5583.61 4986.71 7382.3 4022.56 5522.75 6208.9 3340.09 6061.63 6545.43 4829.35 6760.92 5484.32 4711.04 6650.77 4824.12 7104.73 6162.3 3272.75 4264.54 7043.44 4263.78 4643.9 5228.75 6047.14 5003.78 4061.6 6502.97 4783.07 4852.58 5806.31 5456.71 7317.04 6412.67 5012.97 4036.91 5439.49 6639.64 5212.43 5454.12 6348.54 4066.57 5642.35 5156.76 6357.47 6101.57 4891.38 5535.91 3230.13 5955.86 6176.67 5325.96 4848.46 5412.24 5016.02 4920.21 4581.37 4049.16 5851.61 3936.95 5478.11 6153.94 3858.17 4631.99 4740.98 5128.77 7122.87 5797.36 4153.84 5119.86 5089.26 5084.17 3776.8 6156.21 2460.79 4653.83 6171.71 3628.89 6589.82 4668.88 5027.43 5867.64 4438.58 6059.93 5602.53 5073.02 3472.91 4989.2 7144.05 4506.18 2970.9 6542.5 4383.47 5971.21 6318.23 4206.98 5174.75 5932.07 4793.65 2949.12 3856.53 4532.89 4533.37 5260.85 5742.09 2779.99 2884.65 5887.38 