# vtk DataFile Version 2.0
Time step 26
ASCII
DATASET UNSTRUCTURED_GRID
POINTS 5000 float
2398.25 160869.0 0
8524.79 160245.0 0
12438.7 160078.0 0
16747.5 159396.0 0
22243.6 161039.0 0
27671.3 157782.0 0
33197.5 160468.0 0
38180.4 161051.0 0
42699.2 161199.0 0
47474.2 161110.0 0
52137.1 161205.0 0
57005.4 160045.0 0
62763.5 161120.0 0
67994.7 161253.0 0
72702.0 160388.0 0
77500.0 161133.0 0
82500.0 161122.0 0
87407.9 160421.0 0
92500.0 161160.0 0
97193.9 161182.0 0
101294.0 161099.0 0
105948.0 160492.0 0
111935.0 160970.0 0
117849.0 161153.0 0
123330.0 161229.0 0
128344.0 161350.0 0
133427.0 160599.0 0
138123.0 161282.0 0
142500.0 161204.0 0
147500.0 161137.0 0
152501.0 161107.0 0
157589.0 160736.0 0
162560.0 160892.0 0
167011.0 160436.0 0
171831.0 159319.0 0
177734.0 159356.0 0
182939.0 158542.0 0
187394.0 160395.0 0
196081.0 160720.0 0
201748.0 160079.0 0
207651.0 160842.0 0
212985.0 160182.0 0
218128.0 161264.0 0
222480.0 161276.0 0
225796.0 160513.0 0
230433.0 160382.0 0
241170.0 160081.0 0
252679.0 160065.0 0
259051.0 160542.0 0
268741.0 160542.0 0
273936.0 160837.0 0
278881.0 159484.0 0
286326.0 161124.0 0
297319.0 159449.0 0
303663.0 160239.0 0
312126.0 160658.0 0
317928.0 161285.0 0
323244.0 161183.0 0
332205.0 161049.0 0
337222.0 160759.0 0
345896.0 160307.0 0
355263.0 161219.0 0
361816.0 159852.0 0
372011.0 157878.0 0
367953.0 161193.0 0
377030.0 159850.0 0
382609.0 160720.0 0
388131.0 160017.0 0
394018.0 159334.0 0
399197.0 161008.0 0
403648.0 158267.0 0
408586.0 159476.0 0
412475.0 161125.0 0
417500.0 161166.0 0
422736.0 159281.0 0
427272.0 160990.0 0
432481.0 158796.0 0
437537.0 161143.0 0
442091.0 160086.0 0
446254.0 159665.0 0
450667.0 160435.0 0
455210.0 160380.0 0
460242.0 160229.0 0
465794.0 160609.0 0
471629.0 159867.0 0
477063.0 158670.0 0
485844.0 158597.0 0
491674.0 160138.0 0
497601.0 158631.0 0
2283.96 165896.0 0
6057.6 163569.0 0
11083.4 164594.0 0
17328.3 165299.0 0
28514.0 164135.0 0
34964.3 165742.0 0
40336.7 166061.0 0
44459.5 166403.0 0
48274.4 165106.0 0
52500.0 166165.0 0
57994.0 165487.0 0
62849.0 166219.0 0
67505.2 165891.0 0
72118.8 165508.0 0
77500.0 166291.0 0
82116.1 165937.0 0
87907.5 165179.0 0
92500.0 166300.0 0
97184.3 165934.0 0
102467.0 165833.0 0
108244.0 165083.0 0
112500.0 166236.0 0
117500.0 166318.0 0
122500.0 166241.0 0
127727.0 165784.0 0
132493.0 166134.0 0
137520.0 166149.0 0
142774.0 165627.0 0
146930.0 165975.0 0
151941.0 165853.0 0
156864.0 164786.0 0
161300.0 165608.0 0
166513.0 165108.0 0
172971.0 164888.0 0
178375.0 164769.0 0
183531.0 163610.0 0
188603.0 164841.0 0
192499.0 161555.0 0
193570.0 165700.0 0
198250.0 165066.0 0
203920.0 165700.0 0
213693.0 164732.0 0
209356.0 165916.0 0
217603.0 166334.0 0
222035.0 166105.0 0
226804.0 164747.0 0
232208.0 165804.0 0
235810.0 161376.0 0
243287.0 166458.0 0
246501.0 162083.0 0
248459.0 166158.0 0
257260.0 165180.0 0
263773.0 161628.0 0
262325.0 165805.0 0
267069.0 165387.0 0
271618.0 164697.0 0
277064.0 165101.0 0
282030.0 162816.0 0
287500.0 166214.0 0
291718.0 161581.0 0
292908.0 166073.0 0
298247.0 164960.0 0
303115.0 165910.0 0
307732.0 162808.0 0
307445.0 166101.0 0
312501.0 166409.0 0
317487.0 166161.0 0
322435.0 165652.0 0
327580.0 161450.0 0
327500.0 166195.0 0
332500.0 166267.0 0
341019.0 161970.0 0
337711.0 165604.0 0
343305.0 164996.0 0
350689.0 162226.0 0
347748.0 165401.0 0
352667.0 166117.0 0
361445.0 165165.0 0
357760.0 165638.0 0
365118.0 164869.0 0
372929.0 164679.0 0
378821.0 164399.0 0
382006.0 165537.0 0
388372.0 165106.0 0
393551.0 165480.0 0
402995.0 164466.0 0
398134.0 165913.0 0
408383.0 163757.0 0
412860.0 165067.0 0
417516.0 165680.0 0
422127.0 163917.0 0
428320.0 165934.0 0
433423.0 164030.0 0
437508.0 166210.0 0
443214.0 164369.0 0
447600.0 163674.0 0
451943.0 164914.0 0
457173.0 165110.0 0
466600.0 165179.0 0
470194.0 166358.0 0
475182.0 165159.0 0
481306.0 161532.0 0
486590.0 164790.0 0
496837.0 164140.0 0
6741.46 168614.0 0
11844.9 170432.0 0
16324.6 170507.0 0
23000.4 166558.0 0
20503.7 170522.0 0
27038.3 170967.0 0
32613.2 170803.0 0
38257.8 170573.0 0
42965.0 170955.0 0
47584.5 169827.0 0
56551.2 171107.0 0
62111.7 171086.0 0
67693.6 170735.0 0
73697.0 171051.0 0
78211.4 171488.0 0
81954.9 170663.0 0
86960.7 170695.0 0
92531.5 171051.0 0
97548.2 170453.0 0
107924.0 169863.0 0
116732.0 170922.0 0
112495.0 171137.0 0
120857.0 170771.0 0
125865.0 170153.0 0
140995.0 169749.0 0
146308.0 170866.0 0
156247.0 169347.0 0
161705.0 171298.0 0
169998.0 169675.0 0
176295.0 170527.0 0
182187.0 168749.0 0
188049.0 171003.0 0
194262.0 170726.0 0
199973.0 170170.0 0
208110.0 170821.0 0
204288.0 171167.0 0
213299.0 169543.0 0
217709.0 171268.0 0
222565.0 170380.0 0
226873.0 169752.0 0
232446.0 171268.0 0
237689.0 166626.0 0
237425.0 171052.0 0
246846.0 170229.0 0
252675.0 166627.0 0
251789.0 171520.0 0
257733.0 169932.0 0
262715.0 170583.0 0
267483.0 169843.0 0
273041.0 169941.0 0
279881.0 169154.0 0
282828.0 166503.0 0
283559.0 171436.0 0
287220.0 171507.0 0
291022.0 170384.0 0
296739.0 170006.0 0
302238.0 171146.0 0
307704.0 170531.0 0
318193.0 170652.0 0
322512.0 169657.0 0
326813.0 171542.0 0
336510.0 170268.0 0
331857.0 171265.0 0
341412.0 169201.0 0
346842.0 169787.0 0
351892.0 170954.0 0
356026.0 169510.0 0
361258.0 169867.0 0
366513.0 168951.0 0
371102.0 170820.0 0
377674.0 170334.0 0
384356.0 168875.0 0
392422.0 170303.0 0
397215.0 170261.0 0
402856.0 170707.0 0
409240.0 169401.0 0
419137.0 170371.0 0
424115.0 168737.0 0
432245.0 169654.0 0
437336.0 170401.0 0
442350.0 169605.0 0
448266.0 168746.0 0
454168.0 170320.0 0
458983.0 171363.0 0
462428.0 166589.0 0
463174.0 171128.0 0
467516.0 171248.0 0
472372.0 169681.0 0
477751.0 170637.0 0
480799.0 166807.0 0
482620.0 171503.0 0
492078.0 167040.0 0
491507.0 171101.0 0
496592.0 170711.0 0
2238.62 171804.0 0
2182.12 176218.0 0
8050.32 174455.0 0
13471.1 175056.0 0
17751.3 174352.0 0
22415.5 174897.0 0
32065.9 175090.0 0
37582.8 175777.0 0
43198.3 176018.0 0
49063.0 174617.0 0
51797.5 171588.0 0
53807.2 176286.0 0
59221.0 175785.0 0
63615.7 175416.0 0
68065.0 176410.0 0
72603.0 175926.0 0
77068.9 175412.0 0
82136.3 175684.0 0
87334.2 175869.0 0
92269.5 176380.0 0
97733.0 175805.0 0
102630.0 171595.0 0
107686.0 175361.0 0
113111.0 175467.0 0
118137.0 175399.0 0
123418.0 174758.0 0
127500.0 176315.0 0
131159.0 171850.0 0
136447.0 171802.0 0
137737.0 175716.0 0
142523.0 175868.0 0
151836.0 172465.0 0
148001.0 175475.0 0
156826.0 174748.0 0
160406.0 176111.0 0
166529.0 173118.0 0
170842.0 175704.0 0
182233.0 174228.0 0
186625.0 176637.0 0
191646.0 176128.0 0
197222.0 175454.0 0
203054.0 175310.0 0
214360.0 175213.0 0
218719.0 176510.0 0
222030.0 174639.0 0
227515.0 175301.0 0
234323.0 175653.0 0
237864.0 174378.0 0
241794.0 171706.0 0
241758.0 176308.0 0
246220.0 175415.0 0
255876.0 174651.0 0
260340.0 174322.0 0
266357.0 174528.0 0
271761.0 176212.0 0
278362.0 174656.0 0
284358.0 176176.0 0
288760.0 174662.0 0
292984.0 176378.0 0
298942.0 176307.0 0
303985.0 176535.0 0
307500.0 176359.0 0
313210.0 171655.0 0
316247.0 175369.0 0
312166.0 176177.0 0
321069.0 174900.0 0
325847.0 176474.0 0
329891.0 175090.0 0
339781.0 174593.0 0
346087.0 176042.0 0
352843.0 176529.0 0
357350.0 173467.0 0
361675.0 175857.0 0
366556.0 173644.0 0
371934.0 176451.0 0
382814.0 174390.0 0
387368.0 176249.0 0
388339.0 172064.0 0
399509.0 175878.0 0
408060.0 174753.0 0
404318.0 175900.0 0
412352.0 176427.0 0
414408.0 171958.0 0
416952.0 175756.0 0
427680.0 171772.0 0
425650.0 175397.0 0
431057.0 175845.0 0
437119.0 174597.0 0
441818.0 175192.0 0
446530.0 173748.0 0
450853.0 174260.0 0
455418.0 176087.0 0
461212.0 175788.0 0
466987.0 175576.0 0
472602.0 174639.0 0
478853.0 176136.0 0
487505.0 172598.0 0
484711.0 176642.0 0
492123.0 174959.0 0
1482.49 180906.0 0
7147.56 180761.0 0
11896.3 178792.0 0
17156.7 179531.0 0
23047.3 180281.0 0
26983.2 176894.0 0
30220.1 179630.0 0
34871.1 180422.0 0
39759.8 179840.0 0
43674.5 181682.0 0
48570.8 179840.0 0
57210.2 180176.0 0
63069.8 180192.0 0
68317.2 181585.0 0
73395.7 179986.0 0
78296.5 180562.0 0
83587.9 180625.0 0
88392.2 180687.0 0
92503.2 181223.0 0
97237.7 181221.0 0
101196.0 181281.0 0
102768.0 177055.0 0
105587.0 180877.0 0
111305.0 180051.0 0
116639.0 180658.0 0
122097.0 179949.0 0
126929.0 180369.0 0
131217.0 181060.0 0
132689.0 176679.0 0
136576.0 180267.0 0
142211.0 181561.0 0
147010.0 179752.0 0
151798.0 181688.0 0
153414.0 177121.0 0
157938.0 180677.0 0
164429.0 176820.0 0
167050.0 179692.0 0
163662.0 181306.0 0
171004.0 181712.0 0
177033.0 177095.0 0
182933.0 181145.0 0
193692.0 180213.0 0
189204.0 181046.0 0
198249.0 181343.0 0
203174.0 180411.0 0
208747.0 177168.0 0
212117.0 181417.0 0
216323.0 179829.0 0
221179.0 180159.0 0
231985.0 180157.0 0
237943.0 179114.0 0
242845.0 180958.0 0
248033.0 180495.0 0
251521.0 176778.0 0
252901.0 180806.0 0
257730.0 179833.0 0
262640.0 177897.0 0
267594.0 180475.0 0
278481.0 181310.0 0
283574.0 180763.0 0
288836.0 179982.0 0
293487.0 180975.0 0
302639.0 180840.0 0
307122.0 181200.0 0
311948.0 180917.0 0
316975.0 179802.0 0
322304.0 180491.0 0
330948.0 180605.0 0
327159.0 181341.0 0
334358.0 177078.0 0
341511.0 180083.0 0
337115.0 180980.0 0
357891.0 180041.0 0
367108.0 178551.0 0
362980.0 180830.0 0
377880.0 177783.0 0
383269.0 180409.0 0
388202.0 180430.0 0
393044.0 176967.0 0
403058.0 179878.0 0
408165.0 179603.0 0
414677.0 180071.0 0
417925.0 181313.0 0
421363.0 177019.0 0
427476.0 179856.0 0
431246.0 181273.0 0
436112.0 179577.0 0
441983.0 180853.0 0
448318.0 179264.0 0
454019.0 181243.0 0
459436.0 181393.0 0
464972.0 180674.0 0
473878.0 179858.0 0
469637.0 181524.0 0
481987.0 181092.0 0
489147.0 177368.0 0
486774.0 180980.0 0
492177.0 181536.0 0
496754.0 177353.0 0
2748.9 184945.0 0
12665.0 183297.0 0
18086.0 185300.0 0
23742.3 186037.0 0
28645.3 183676.0 0
33625.4 185978.0 0
39125.8 184680.0 0
43733.6 185892.0 0
48681.8 185809.0 0
53128.5 182280.0 0
59713.5 185189.0 0
64865.2 186288.0 0
68285.0 185784.0 0
72216.4 183867.0 0
76322.2 185460.0 0
81943.6 186047.0 0
[...]
POINT_DATA 5000
SCALARS Radius float 1
LOOKUP_TABLE default
4796.58 3979.26 3471.03 5253.55 5820.48 5782.6 4862.21 5113.21 3929.19 4107.03 4478.15 5379.87 5925.6 4501.51 4792.73 4736.58 4931.38 3485.26 4329.05 4151.94 4049.23 5337.48 6124.89 5708.81 5252.48 4780.03 5495.39 3996.0 3856.1 4665.12 3383.4 4133.88 4834.9 3850.77 6044.04 5415.48 5120.0 3863.18 4998.37 6182.6 5492.18 5258.36 5061.3 3642.12 3163.97 5812.43 5906.14 7513.1 5254.28 5733.48 4672.91 5580.89 5645.7 6810.52 5840.26 6110.27 5561.06 5073.35 5670.04 4380.59 6716.79 5759.91 7613.27 5529.52 4951.03 5255.32 6037.08 5096.78 6756.95 4129.43 6324.23 3843.58 3320.52 4194.5 4270.53 5344.25 5191.63 4593.7 4150.99 4216.92 4742.68 4344.58 5634.83 5495.84 6268.1 4861.06 5320.28 6739.08 4797.52 4569.12 4298.67 5960.66 6608.73 7034.11 6261.42 4502.5 3771.48 4043.57 4271.69 5681.38 4138.42 3708.04 5513.6 3240.09 4556.36 6082.81 3191.99 4685.34 5601.05 4929.8 3586.91 3103.0 3554.9 4015.92 5542.21 4487.31 3936.02 4044.71 5980.74 4094.62 4927.02 5546.39 5325.36 5484.83 5085.53 5351.6 2356.98 4730.36 4715.55 5867.73 3951.75 5013.56 4499.64 4375.68 5542.27 5054.98 5122.66 5170.02 5484.19 3557.27 4688.68 4436.4 4402.52 4517.56 4182.53 5903.42 3588.44 3761.32 5176.86 4118.05 4366.19 5553.16 3672.51 2938.66 4940.78 4231.61 4008.92 3615.22 3942.53 3379.84 3589.27 4827.82 3997.1 3607.45 3260.67 5123.52 3038.33 4392.68 4333.2 7199.21 4523.7 2240.39 5091.39 5293.9 6142.94 3912.37 4727.24 4602.25 4790.08 5082.47 4763.45 5445.87 3815.26 4704.72 4177.94 4571.7 5896.46 3784.5 3780.23 6481.79 5374.51 7042.12 6326.39 5873.69 4962.09 3999.48 5011.84 4359.62 6946.21 2586.12 5433.8 4011.77 5499.11 5922.5 5198.77 5987.17 6013.14 2765.2 4901.41 5110.37 5664.98 4382.74 4651.28 3693.63 4384.42 4516.43 5481.78 5043.05 5816.2 5109.54 6483.19 5945.65 6759.9 5538.89 7021.47 5416.38 6059.59 4955.55 2720.68 5701.86 3563.63 4238.81 4468.59 5885.03 6030.06 2837.58 5200.76 4927.31 5017.13 4862.64 5185.34 4432.58 6684.56 3968.64 3955.56 4688.67 2635.86 5292.64 6166.5 5065.13 5936.02 4861.08 4003.05 5390.22 4805.87 4712.33 5227.21 5697.78 4667.36 4091.31 6372.62 4295.38 5615.42 7565.34 5923.5 4612.68 4973.83 6342.25 6691.39 5135.69 5344.0 6045.46 4245.72 5908.1 6048.7 6133.92 3719.84 5022.8 4178.4 3095.48 4166.08 4123.6 5224.12 4850.14 4819.73 3382.7 6817.32 4471.58 4319.79 6098.14 4472.17 4203.26 5188.81 6057.22 5062.71 6125.34 4527.08 3633.87 5347.48 4850.01 3970.25 5147.67 3979.82 5011.31 5138.31 5264.06 4659.59 6327.9 5927.43 6355.42 4362.19 5690.56 4948.92 3115.91 5637.59 4937.14 3307.12 5924.89 5693.81 4002.16 4174.52 3486.22 3829.13 6230.49 5418.62 4601.27 5493.32 5740.68 5926.61 5836.15 3261.21 4345.55 6704.06 3653.41 3871.88 5325.02 3856.01 5246.2 5279.39 3673.74 5205.43 6116.18 7447.37 4924.6 4385.06 4733.32 7184.19 2899.43 2924.37 5305.17 4290.3 3867.67 5399.73 4660.72 3888.21 6038.78 6902.81 6644.76 4254.17 5629.19 5090.24 5740.84 5530.87 4310.18 4281.49 5978.9 4187.56 3629.62 4997.27 4840.84 4301.06 4020.32 4290.14 6562.18 4156.38 5316.75 4541.21 4164.68 5669.65 5934.22 5624.49 5762.59 7092.87 5163.55 4666.81 3954.91 2965.01 6643.85 3637.61 6222.42 5654.31 4730.41 3745.84 5690.26 4156.2 4497.59 5965.78 4810.12 5643.58 5215.05 4292.06 5577.04 5006.58 4602.86 3688.8 4548.16 3369.23 4048.37 5449.18 5492.26 5244.78 5762.84 3937.74 4749.8 4493.48 6084.86 5478.92 4778.34 5551.36 4138.16 6894.71 4684.5 3091.3 4414.54 5789.98 6458.82 7054.71 3641.64 5489.43 5747.75 4277.89 6051.14 4796.33 4195.44 5539.32 6496.85 5600.93 4874.39 5541.59 4390.66 4124.71 5728.85 4827.23 4911.47 5863.59 4381.97 6257.19 3255.82 2812.98 4065.69 5603.15 4695.45 6052.7 3921.18 3798.62 5891.05 5308.1 3666.57 5655.21 4786.6 4645.41 6445.94 5542.14 4218.06 7134.64 4716.19 5514.76 3456.98 3498.2 4877.67 3066.13 4302.5 6006.16 6009.88 7055.53 5013.67 5826.04 5339.78 4970.88 4143.78 4636.5 3703.1 4940.42 5923.4 6471.55 5499.39 5501.93 5463.38 5945.21 4938.74 5696.88 5607.14 3923.03 5975.63 4374.35 6396.74 4138.46 2775.04 3821.72 4986.77 6318.18 5586.81 3948.17 4621.75 4551.24 5358.59 4220.88 4515.71 6519.71 6640.13 5082.6 5810.84 4230.54 5094.44 3748.24 4655.49 4467.94 4850.81 6138.47 5527.54 5573.7 4727.62 5054.25 4055.8 7325.81 5280.17 5360.19 4794.96 6186.19 5083.08 6834.49 6337.56 5525.39 5803.39 4024.3 6394.38 5555.28 5242.73 4737.14 4686.65 5834.74 5556.96 5788.23 5581.75 6392.01 4907.89 6730.19 4937.02 4907.06 4073.93 3735.44 6043.3 5952.75 4433.59 4320.28 6122.55 2739.94 4931.53 5480.13 6308.71 3323.28 6695.82 6405.76 5794.24 5105.16 4678.38 5448.61 5050.65 4827.33 5206.48 5513.57 5729.23 5226.0 3365.82 4538.95 5965.15 4763.66 6090.91 4946.42 5085.71 6116.33 5644.82 6343.14 5462.21 5750.71 5470.77 4831.47 4643.85 4004.04 5252.34 4289.17 5564.02 4274.61 2965.79 6898.19 6035.6 4481.53 5330.45 4581.13 3610.4 4219.07 6387.01 5367.52 3092.35 4322.15 5210.03 5478.47 5351.39 6142.37 6061.47 4933.21 5375.47 6038.14 2540.31 5120.49 6029.66 5262.61 6302.8 5697.4 6038.2 4270.95 4005.44 5206.78 6732.43 6425.26 5143.58 4484.76 4839.34 4840.01 2980.99 7933.0 4455.12 3998.5 5173.87 5938.34 5380.13 5118.27 5169.36 5932.23 5791.61 3369.13 4479.66 3043.85 5461.13 4726.76 3599.45 5489.34 5163.9 5708.14 5537.72 3920.42 6332.36 6155.31 4223.33 5911.67 5709.62 5835.78 4127.74 2476.04 3942.07 7443.72 3937.08 5260.34 4709.35 6586.45 4373.3 4750.78 4163.5 5724.64 5078.86 4780.2 5100.1 3561.29 4963.34 5019.93 3295.83 5081.78 4260.92 6263.44 5960.56 5774.97 4020.95 6313.06 3474.39 6470.3 6062.05 5082.74 6072.45 4410.55 7099.43 5526.14 5137.34 5198.29 5423.0 3856.59 5413.79 6338.89 6202.55 5025.39 4714.54 3629.96 5893.5 3320.11 5030.91 6022.17 5119.37 6163.38 4566.18 4723.12 3459.9 4964.09 5201.36 5024.9 4306.53 5409.61 5094.81 5972.06 5713.22 5555.88 5028.96 3866.16 3794.63 6362.12 3778.1 5152.36 4511.82 5611.2 4220.65 6820.42 4816.2 4894.16 4896.52 5711.87 4751.02 3372.79 4941.22 5282.64 4715.72 4669.66 4808.52 5367.2 5607.24 5053.92 5839.13 5495.68 4863.72 5002.48 4262.82 5102.36 8332.24 4342.9 5069.84 4553.56 5329.64 4051.44 6049.55 5941.72 5991.09 5133.97 6600.94 4788.58 5371.02 6155.1 5876.71 5029.78 6515.84 4888.6 4918.77 4371.99 4219.78 3885.86 4459.28 5235.29 4479.94 6250.23 4118.84 5862.86 3493.7 4200.03 4719.7 6939.12 4735.33 6915.83 5092.37 6444.77 4287.63 5315.4 6449.45 5077.33 3975.31 4746.52 3689.45 3824.16 5572.95 3868.18 6723.16 5584.06 7111.16 4547.19 3817.13 5507.24 3982.23 4583.31 4503.89 5806.08 4853.39 4997.27 4093.08 4809.42 5543.27 4717.05 5659.17 6135.57 4312.67 5423.8 5861.71 4359.04 3183.98 4989.15 5017.78 4524.28 5015.69 6175.81 4727.24 6677.09 5826.64 4829.35 5201.67 6321.41 4089.76 5526.55 3192.41 5184.56 4987.87 3315.57 5804.71 5046.33 4764.96 5727.3 4242.52 5356.51 6352.26 3847.38 3818.59 3057.03 4087.15 4143.08 7500.97 6623.85 5228.18 5787.31 5065.11 5868.82 4050.9 4978.31 4241.89 4099.77 5054.74 4537.32 4656.78 5126.91 3600.43 5131.24 5196.67 6496.67 5474.8 6262.72 3664.11 5117.47 4925.63 2990.77 5882.65 4739.14 4434.19 5187.7 4188.3 6261.75 5177.64 4255.31 5453.3 6413.02 4863.27 3492.19 4584.5 5122.63 6049.79 4703.08 5374.98 5274.19 5516.95 4406.4 5411.85 4844.57 4027.46 6314.07 5776.37 4516.28 3627.82 4044.45 5125.78 5344.43 4373.47 5045.38 5350.88 5372.61 3686.21 6480.17 5023.15 4377.07 6851.54 3813.22 5570.3 4336.42 5243.29 7589.94 4449.22 3130.65 5856.11 5287.2 4109.88 4234.94 5998.38 5013.13 5080.66 4270.24 3417.33 4926.42 4164.13 4642.34 4520.1 4947.52 5874.89 4305.57 4293.03 6959.81 4389.21 3791.79 4424.7 4925.44 4754.05 4951.47 6084.93 5215.15 3697.96 4739.42 5538.93 5020.12 4745.45 2631.9 5281.28 6255.18 4277.88 4668.71 4758.21 7228.46 3948.23 5978.82 5266.5 3927.99 4948.98 5227.52 4414.48 4092.24 4981.9 5163.02 7144.24 4906.82 5687.83 5004.23 6442.69 4648.04 6607.87 4721.32 3293.56 3163.78 5274.14 4903.82 5746.28 4623.61 4082.47 5511.6 4338.08 4378.3 6134.99 4094.73 4407.9 4440.57 5548.29 6766.43 2315.64 6345.13 5226.56 5313.22 4413.85 3905.51 3999.94 4470.98 4864.22 5759.46 3921.08 4190.31 5678.96 5262.19 4244.9 6070.58 6034.41 5130.91 5402.24 4519.22 6445.22 3844.9 5101.59 3963.86 3848.93 4306.11 5935.47 3402.32 5903.66 5628.24 4528.49 5004.67 5365.89 3327.49 5992.26 3960.8 4562.29 5070.39 4980.85 5714.58 5110.45 5208.32 5248.77 4083.97 4607.02 5153.74 4528.09 3895.51 4165.81 5813.4 6291.51 4128.98 5882.89 6246.22 4188.32 5246.61 4307.28 4100.38 5344.77 4723.48 4899.11 5097.87 4278.07 7267.18 5320.92 5269.18 4406.1 6362.14 5034.59 6719.88 4454.63 5080.18 5912.61 4523.88 3279.1 4066.38 4403.98 4560.84 4729.43 5776.57 4562.74 5598.74 7493.3 4814.55 6320.71 3464.83 5698.77 2477.07 6413.11 4305.16 5092.28 4965.89 5659.95 4152.85 2908.7 4453.64 4517.73 5469.47 5660.16 4989.56 4718.54 2588.37 6736.03 6235.57 3623.87 5916.16 4390.41 6113.95 5599.49 4097.57 5017.5 5563.79 3901.8 6171.13 5511.88 5083.41 7055.42 5486.68 6048.86 4285.32 5490.43 5022.28 5452.83 4959.34 4948.5 4527.02 4531.14 3695.36 4564.34 3838.56 4871.44 5076.35 6020.48 6375.99 5200.05 5234.29 5313.66 5419.37 4466.03 4511.54 5409.33 5196.0 4923.9 4973.78 3329.99 3947.47 3296.27 4713.25 4204.84 6243.0 6673.96 3556.85 5441.96 3435.9 5174.89 4288.3 5370.52 4652.29 5774.81 3746.31 5498.32 5027.98 5346.27 6475.1 4969.21 2691.29 2845.98 6256.02 5314.85 4305.43 5450.44 4942.77 4263.33 5592.32 5381.16 6193.35 6086.96 5233.78 5653.9 5046.21 5683.26 5894.61 5139.5 5304.13 5944.09 5833.06 3527.05 4923.41 4497.31 5384.76 5529.42 5257.12 5243.43 4537.14 5551.9 3757.34 6415.61 4687.64 4419.71 5037.06 3838.47 4541.8 5175.29 5842.56 5412.31 3087.09 6934.37 4890.5 4050.08 3981.07 5452.42 5328.22 6853.85 2395.5 5941.61 4512.11 5782.48 5683.61 3836.45 5100.25 6894.26 4986.51 5197.52 5178.99 5383.07 4591.87 5013.42 4790.78 4247.15 6552.22 5651.07 6248.81 5273.35 2651.49 4645.58 5512.23 5275.32 5985.29 4898.94 4613.31 4733.04 6119.09 5788.66 5091.68 7531.29 5069.25 5048.89 3161.47 3991.03 6390.78 7435.25 6826.57 4788.87 4495.87 6022.72 4643.31 5527.33 5402.21 4989.09 4880.14 5289.52 4982.31 3848.54 4307.48 5941.4 5331.02 6510.17 5742.65 4871.96 4863.23 4402.67 4470.61 5565.13 4384.88 6887.27 3701.27 6008.49 4806.34 4287.53 5612.21 4929.14 5945.08 3979.54 3306.14 5490.58 4863.79 4702.06 3830.46 6031.67 4689.15 6138.12 4428.78 5409.66 4345.67 4765.72 4642.66 4752.14 5329.59 4888.12 4950.97 5512.16 3197.63 4863.96 5887.15 5203.08 7480.41 3423.15 4488.85 3731.84 4901.07 5186.3 3436.15 3497.9 4151.76 4020.4 3493.47 4596.75 6248.6 5443.58 4558.46 5805.86 4470.4 5339.38 6169.11 5615.35 4027.09 6422.84 4502.18 5379.09 4602.85 4962.77 5872.05 4853.02 4091.8 6259.23 5181.4 5670.2 4711.62 4247.23 4178.15 4268.65 4694.83 5509.42 4354.08 4256.43 5936.36 4520.62 3903.75 4755.47 5935.03 4485.99 5127.16 5475.8 5314.69 6050.81 5543.46 4249.46 5965.81 3702.37 5660.85 2330.66 4177.19 6917.52 3587.05 6229.37 6718.19 5282.91 4425.84 7256.35 4800.69 3555.86 6386.78 4631.83 4996.99 6081.14 5480.83 4220.46 4607.85 5128.57 6000.7 3169.67 5604.21 4968.03 3361.92 6710.88 5395.14 3967.48 6213.04 3685.13 6790.73 4655.16 5251.4 3867.19 5857.79 4039.91 5276.7 5036.58 6119.63 5411.02 4752.9 4287.16 5199.44 5191.08 4062.5 4435.51 5374.07 5163.77 4588.7 3766.55 4579.69 3554.48 6496.52 5005.85 4216.17 6484.17 4721.02 4254.37 3374.08 4933.65 4031.78 6098.1 5708.99 4049.02 5346.68 5311.03 5255.12 5296.29 4611.53 4285.66 4896.11 5172.53 5801.99 5210.48 7552.94 5323.3 5088.44 4998.21 4662.56 4114.24 5349.31 2976.22 4649.22 5394.55 5094.52 4946.74 2682.24 5928.32 5229.48 5475.7 4016.18 5526.75 5435.74 4244.99 5327.45 5560.26 6185.89 3997.96 4750.17 4439.35 3460.94 3990.25 3691.0 3758.07 4752.51 4236.14 4407.87 5733.62 5282.51 4460.92 3797.33 5945.89 4042.28 4105.55 4340.76 6566.1 6065.22 4221.28 4456.39 4896.39 3633.79 5421.53 5937.08 6070.3 5233.29 4312.56 4612.06 5204.04 4750.58 6667.68 5235.11 6622.11 5211.38 4590.55 5920.32 4255.85 5097.69 3988.3 6543.13 5149.72 5464.25 5486.48 5301.47 4617.55 5424.88 5415.85 8659.64 5683.95 6027.62 5010.2 6123.03 5966.61 5711.11 4575.94 4938.72 3546.71 5768.57 5564.23 5950.04 5687.85 4231.83 2435.33 6401.43 5020.71 2681.29 5094.48 3872.61 4238.4 4135.62 4318.48 6132.95 5534.94 4860.33 7644.38 6004.68 4051.34 6101.92 3627.55 6239.84 4635.6 4256.67 3457.48 5166.79 3931.07 3405.98 5417.15 3688.16 4681.72 4945.39 5996.33 3950.63 5415.19 4612.62 3619.07 4275.57 4467.04 6385.23 2983.99 2614.4 6363.92 6205.93 4923.24 5830.72 6184.4 3828.81 4373.45 4082.57 5255.18 5169.9 3004.16 4767.78 5235.17 4421.12 4779.5 5254.49 6649.96 4303.19 5514.84 5784.3 3914.2 4256.57 6088.68 4135.08 5620.74 4778.82 6124.08 5467.84 5053.95 5926.11 5253.37 5767.9 6515.8 5089.62 5869.4 4741.26 3701.16 4186.6 5895.77 4732.09 6136.49 4356.25 4216.95 5776.96 5742.74 4244.21 4947.24 3645.12 3875.05 6200.54 5148.58 4199.45 6599.66 5469.13 4233.8 5765.42 4997.83 4893.49 5325.44 5021.88 5956.65 4498.25 4188.87 3735.24 6574.95 4074.48 4558.47 5731.57 5997.88 5839.71 5576.92 6408.83 5266.22 3930.79 4004.35 5226.97 3685.13 3312.06 3361.26 6799.4 5278.36 5865.39 4427.28 6079.11 3082.32 6430.39 7440.72 3949.6 5703.6 6326.18 5661.62 6631.19 6648.68 4713.74 5626.61 5817.25 4084.49 5061.98 6632.99 4537.6 5147.36 4419.61 7177.44 4563.46 5309.98 6553.94 5460.65 5652.0 5463.41 5225.33 4929.75 4435.36 6045.22 5134.39 3532.3 5769.98 5442.32 2221.99 4643.56 3580.58 4863.01 5356.79 5657.36 3619.79 5029.47 6306.21 5266.01 2978.76 2040.66 7016.27 3876.21 3685.65 4916.22 6022.7 4940.84 5750.07 4809.67 4757.74 6045.67 4209.49 3946.28 3821.94 5439.9 5367.73 3540.11 3456.47 4652.01 5421.64 7234.66 4055.54 4886.12 6419.12 4976.12 6098.95 5453.98 3991.42 4388.63 5102.75 4200.09 4597.29 5931.77 5151.21 6333.29 4477.04 3886.68 5703.74 5662.55 5737.92 4360.23 5365.24 5293.51 4763.96 5754.18 5180.76 3418.99 4480.95 4993.35 4409.63 5521.25 3661.9 5370.85 5949.46 3658.37 3178.54 4765.02 5376.71 4448.13 5070.29 4807.28 4867.08 4266.03 5280.69 4220.03 6923.84 5407.78 5449.46 6179.96 6113.54 4662.43 6260.79 3963.76 5528.53 6799.88 3062.43 5726.66 5426.78 2967.38 4159.35 6477.91 4237.98 6439.37 4081.97 4614.3 5401.99 5580.92 5973.33 5067.46 3583.21 2511.46 4011.37 2775.69 4785.25 6519.43 5876.64 5424.46 4857.84 4908.49 4962.21 4858.44 5884.9 4673.35 5689.26 4992.42 5297.19 4351.38 4833.46 5933.7 7248.4 5280.12 5984.81 3498.16 4409.27 4640.06 5471.74 3548.39 3673.28 4858.51 4207.54 5625.65 4301.61 6107.89 4817.16 4446.84 5660.55 5148.08 4834.87 5760.22 3672.21 5938.17 4795.43 5398.64 5097.95 6817.57 4693.52 3614.96 6853.04 4745.43 5831.96 4747.55 3056.7 3755.95 6234.32 4586.19 4446.06 3450.93 5008.63 4270.74 5132.68 6595.03 4558.15 6218.95 5222.16 5107.23 5136.08 3776.94 5558.68 4010.57 5629.39 2684.03 6157.04 4768.61 2261.36 5075.55 4522.21 5506.19 6719.94 4950.67 5227.59 6166.29 5453.6 5703.07 5294.77 4709.05 4630.82 4043.66 4813.08 5860.67 4540.86 5990.52 4835.83 5604.35 6316.56 4332.87 3091.67 6420.81 4715.58 4450.7 5151.52 5369.08 4347.74 4009.62 5291.9 2081.58 6505.78 5461.55 6865.76 6449.64 6464.8 4684.44 4749.59 5799.69 3468.42 3809.69 5571.72 4771.13 3208.96 7051.9 4184.23 4144.57 5550.75 6834.41 6226.14 5466.33 4444.97 3000.29 5721.05 4247.69 4514.39 4588.99 4321.21 4344.34 4928.27 3583.49 5052.84 3375.28 4366.74 5297.16 3184.64 5206.33 5530.49 5653.03 3718.69 4514.79 2216.82 4509.89 6752.75 5269.38 5607.3 5108.06 3573.73 2928.82 4222.4 4000.43 3420.08 4568.41 4912.04 4539.07 5464.68 2685.81 5591.76 4585.31 6625.18 5323.91 5097.45 6293.89 2761.07 5737.75 4983.39 5366.52 4690.55 5533.72 5533.42 4802.32 3678.08 4599.38 5246.47 4187.31 6191.29 3240.51 7422.36 5161.01 4298.15 4628.4 5832.37 6051.83 4642.93 5409.63 4263.16 3973.12 3077.84 6024.75 6109.49 5567.93 5987.42 5332.65 3764.1 6451.33 5413.31 3012.99 6400.08 4743.59 5208.14 3317.83 3763.05 5092.24 5549.49 3101.75 4518.04 4766.06 4874.18 5435.19 3298.2 4270.15 4953.1 5818.95 4093.99 3940.49 4406.05 4680.94 5828.35 5876.72 5236.43 5285.07 4680.14 4608.41 4187.94 5980.59 3796.15 4801.8 7216.98 5271.02 4209.31 5718.28 6242.79 5950.45 5713.03 5849.65 5134.67 4165.21 4215.0 4936.96 4481.76 5452.78 5065.26 4304.41 6192.0 4940.28 5885.28 6579.31 3004.34 3022.6 4811.76 4914.45 4698.87 4661.03 3624.7 4691.91 5262.35 4475.83 4510.8 5889.35 5010.04 4394.56 4570.98 4275.07 5825.38 4185.61 4047.87 5742.47 3778.02 6552.21 5417.8 5146.37 7132.12 4836.16 5518.57 5151.11 5463.48 5730.33 5545.46 4527.99 4376.7 5190.61 8325.01 3764.06 4440.81 5941.9 5434.47 6642.76 5829.22 4497.78 4243.79 5811.18 5433.65 4442.22 4008.15 4887.76 4669.06 4811.32 4286.49 6184.88 5829.32 4396.25 5551.95 3918.87 5423.42 2275.45 6605.86 5012.5 4383.56 3562.79 7093.13 4516.53 4122.92 3604.14 4452.54 5089.1 2711.19 4028.32 4099.92 4884.59 3858.06 4511.7 4083.79 5263.27 6300.92 5021.77 5599.29 6038.68 5046.12 4807.4 7013.17 3805.67 4601.74 6506.86 5088.57 5580.34 3852.6 5775.31 4706.5 4603.5 4647.67 5375.12 4356.36 4892.44 5578.94 7610.49 4286.17 3684.56 5323.55 5375.1 4172.6 5313.12 5351.56 5160.59 3984.88 4732.09 4320.42 4255.34 5064.79 5480.3 7509.24 4146.81 5896.26 5388.78 6101.13 4573.72 5099.21 4917.99 5636.4 4367.78 4350.12 5227.02 5670.0 4232.16 5300.96 4344.51 5680.94 3781.77 5581.55 5193.01 4543.1 3474.5 6550.44 3860.83 5732.27 4523.39 5278.56 5146.37 6917.62 4013.38 5631.14 4343.78 5263.3 4909.65 6523.86 7693.4 4326.48 4437.07 3449.37 5491.9 6405.0 4659.16 5789.55 4633.05 4901.2 5711.62 4990.79 4798.17 5166.79 6479.39 2895.63 4997.91 5079.22 5381.54 5810.77 4714.83 5474.15 7519.2 6355.68 4478.6 3953.55 4304.63 4469.54 4314.56 4173.54 3928.53 5606.51 5740.65 3834.47 6349.67 6329.53 4590.01 6101.86 4227.41 5993.0 4803.57 5966.42 4110.59 3332.49 5354.66 4214.44 5378.23 4787.97 3746.36 6789.23 3989.7 4777.03 4246.61 6028.09 5452.36 3804.5 6486.37 5498.42 5318.53 3344.57 5220.76 4281.98 7165.9 5344.83 7046.11 3427.63 4863.97 6342.48 5756.75 5599.7 4587.67 4163.74 6969.28 3665.95 5698.96 4095.75 3603.51 4298.45 5222.51 6609.84 5135.96 3834.43 5658.37 4707.06 6074.94 5491.37 4250.88 3783.54 6348.03 3475.67 4792.39 7038.89 3863.67 4814.12 5067.56 6137.8 2735.53 3352.35 5116.6 3747.03 2783.85 4356.49 4526.81 3994.07 4219.94 5907.46 4264.91 6740.71 5399.29 4909.31 5971.22 6522.59 6602.43 3568.28 5425.98 5996.66 4405.42 2995.67 3598.08 4599.81 5698.23 7300.58 3608.06 6633.61 5217.95 4867.7 5484.36 4277.24 4063.9 5291.05 5161.1 4619.2 5166.41 5067.56 2596.96 5701.75 4350.15 4139.3 6541.45 4750.49 5078.31 5391.48 4923.43 5131.15 4847.14 3950.27 5116.66 3566.79 5374.67 4981.43 4741.28 4215.2 5069.89 4157.29 6813.72 5327.75 4609.02 4896.65 4638.18 4196.37 6448.66 4453.97 6945.98 5138.2 5783.48 4449.98 4701.5 4504.35 4771.65 4840.44 5093.82 5951.81 3924.14 6918.35 4296.69 6238.32 3319.67 6471.42 5283.8 4076.59 4428.14 5164.1 6464.15 4479.11 4972.17 6685.4 5699.53 4222.77 6332.01 5268.38 5527.23 4805.33 4234.18 7085.01 5980.95 6193.08 6069.3 5887.01 5168.35 5388.39 5335.47 3728.18 5633.61 5048.19 6799.23 4888.27 6487.56 4854.11 5533.19 5417.21 5583.61 6063.64 7382.3 4022.56 5522.21 3772.3 4855.01 6208.9 4923.57 3340.09 6061.63 2279.05 4829.35 4075.28 8137.11 5484.32 6650.77 4067.96 7104.73 6162.3 3272.75 4264.54 3516.27 7043.44 4263.78 4643.9 5228.75 6047.14 5009.83 5210.38 5717.8 3629.44 5003.78 3299.24 6246.56 4061.6 2603.64 5107.0 6212.15 6502.97 4783.07 4946.23 4852.58 6083.28 5211.6 3556.79 5806.31 5456.71 3503.41 7317.04 6412.67 7001.83 5012.97 5589.37 5439.49 6639.64 5212.43 4834.3 6348.54 6804.79 5642.35 6372.13 5369.5 5404.01 6016.19 4124.49 3230.13 5714.25 6176.67 5325.96 4850.06 5016.02 7044.29 4920.21 4049.16 3936.95 6153.94 6836.82 3862.77 4631.99 4740.98 3185.39 5128.77 7122.87 5797.36 4243.26 4153.84 5119.86 4592.15 5089.26 5084.17 4901.44 3776.8 4998.22 5096.43 6156.21 2460.79 6104.26 4653.83 6171.71 4986.71 3628.89 4668.88 5027.43 5522.75 5867.64 6059.93 5602.53 6545.43 6760.92 4989.2 4711.04 7144.05 4506.18 4824.12 4383.47 5971.21 4036.91 5454.12 4066.57 4206.98 5156.76 6357.47 6101.57 4891.38 5535.91 2949.12 5955.86 4533.37 4848.46 5412.24 2779.99 5887.38 4581.37 6942.34 5851.61 5478.11 5526.31 3858.17 5030.15 6589.82 4438.58 5073.02 3472.91 2970.9 6542.5 6318.23 4058.87 5174.75 5932.07 4984.46 5948.71 