# vtk DataFile Version 2.0
Time step 49
ASCII
DATASET UNSTRUCTURED_GRID
POINTS 5000 float
16747.6 78445.6 0
27669.2 76828.7 0
171830.0 78368.7 0
177734.0 78407.0 0
182938.0 77593.3 0
278881.0 78538.2 0
297319.0 78502.8 0
372012.0 76923.3 0
394019.0 78385.7 0
403650.0 77311.7 0
408587.0 78523.9 0
422737.0 78331.2 0
432478.0 77843.2 0
477063.0 77719.6 0
485844.0 77651.8 0
497601.0 77683.9 0
2398.29 79920.1 0
8533.87 79293.6 0
6062.4 82613.7 0
12438.9 79127.7 0
11087.2 83645.6 0
22243.6 80093.4 0
28519.4 83180.4 0
33204.9 79516.1 0
38185.2 80099.9 0
42703.8 80253.1 0
47472.3 80159.3 0
52137.1 80258.9 0
57005.0 79098.5 0
62763.5 80174.3 0
67994.7 80307.8 0
72702.5 79440.3 0
77500.0 80187.2 0
82500.0 80176.5 0
87407.7 79474.7 0
92500.0 80214.6 0
97192.6 80236.1 0
101292.0 80153.2 0
105946.0 79542.7 0
111936.0 80022.0 0
117850.0 80207.0 0
123330.0 80283.7 0
128345.0 80404.6 0
133428.0 79653.3 0
138124.0 80336.8 0
142500.0 80257.9 0
147500.0 80191.5 0
152501.0 80161.3 0
157589.0 79788.8 0
162561.0 79944.1 0
167010.0 79485.8 0
183533.0 82661.3 0
187393.0 79448.0 0
192498.0 80609.8 0
196079.0 79772.2 0
201747.0 79132.5 0
207650.0 79896.7 0
212985.0 79232.2 0
218128.0 80318.2 0
222479.0 80330.6 0
225794.0 79559.8 0
230434.0 79431.8 0
235810.0 80429.7 0
241170.0 79134.0 0
246502.0 81135.4 0
252680.0 79119.4 0
259052.0 79594.0 0
263773.0 80682.5 0
268740.0 79591.5 0
273935.0 79886.8 0
282030.0 81870.7 0
286325.0 80178.3 0
291717.0 80634.3 0
303664.0 79287.0 0
307730.0 81857.3 0
312126.0 79711.8 0
317929.0 80328.8 0
323245.0 80234.2 0
327581.0 80505.2 0
332206.0 80103.7 0
337223.0 79812.9 0
341019.0 81023.8 0
345896.0 79358.8 0
350686.0 81281.9 0
355258.0 80265.1 0
361815.0 78905.5 0
367954.0 80238.9 0
377031.0 78895.0 0
382609.0 79769.1 0
378819.0 83445.8 0
388132.0 79069.8 0
399200.0 80054.5 0
402999.0 83511.3 0
412474.0 80174.5 0
408388.0 82804.7 0
417500.0 80220.3 0
422128.0 82967.9 0
427271.0 80039.9 0
433429.0 83076.3 0
437540.0 80196.6 0
442088.0 79138.2 0
443214.0 83420.5 0
446251.0 78719.0 0
447602.0 82728.9 0
450665.0 79486.8 0
455208.0 79426.6 0
460242.0 79270.4 0
465793.0 79659.6 0
471628.0 78916.1 0
481305.0 80582.8 0
491674.0 79190.5 0
496837.0 83193.1 0
2284.54 84934.7 0
6738.96 87658.8 0
17332.5 84347.8 0
23005.5 85603.6 0
34969.2 84790.6 0
40341.7 85109.1 0
44464.6 85450.8 0
48279.8 84153.8 0
52500.0 85219.1 0
57995.2 84539.8 0
62850.0 85273.8 0
67505.2 84945.6 0
72115.9 84559.9 0
77500.0 85345.3 0
82116.1 84991.4 0
87907.8 84232.5 0
92500.0 85354.3 0
97183.5 84983.1 0
102467.0 84887.8 0
108243.0 84133.9 0
112500.0 85290.6 0
117500.0 85372.1 0
122500.0 85295.0 0
127727.0 84837.7 0
132494.0 85188.5 0
137520.0 85203.3 0
142774.0 84680.5 0
146926.0 85028.6 0
151937.0 84906.1 0
156861.0 83838.1 0
156244.0 88398.7 0
161296.0 84658.3 0
166509.0 84157.5 0
172971.0 83937.7 0
169996.0 88724.1 0
178375.0 83819.3 0
182187.0 87800.3 0
188603.0 83893.6 0
193571.0 84754.0 0
198250.0 84116.9 0
203920.0 84752.3 0
213692.0 83782.5 0
209357.0 84966.6 0
213300.0 88593.4 0
217601.0 85388.9 0
222032.0 85155.0 0
226801.0 83794.8 0
232205.0 84856.6 0
237686.0 85681.0 0
243283.0 85505.3 0
248462.0 85209.0 0
252678.0 85679.6 0
257263.0 84232.5 0
262325.0 84858.1 0
267061.0 84434.4 0
271610.0 83737.7 0
277075.0 84141.5 0
279878.0 88204.7 0
282828.0 85557.3 0
287500.0 85268.6 0
292913.0 85125.4 0
298250.0 84013.2 0
303119.0 84957.5 0
307441.0 85150.3 0
312501.0 85463.2 0
317475.0 85204.1 0
322433.0 84702.2 0
322509.0 88707.4 0
327500.0 85248.8 0
332500.0 85321.2 0
337713.0 84654.4 0
341414.0 88254.4 0
343308.0 84049.0 0
347752.0 84445.2 0
352668.0 85171.8 0
356026.0 88559.3 0
361441.0 84218.2 0
357755.0 84685.3 0
365114.0 83910.6 0
366513.0 87991.5 0
372930.0 83724.1 0
382004.0 84584.1 0
384354.0 87921.7 0
388375.0 84158.1 0
393554.0 84532.8 0
398136.0 84967.5 0
412864.0 84116.6 0
409243.0 88449.5 0
417520.0 84735.9 0
428326.0 84982.2 0
424121.0 87785.1 0
432249.0 88699.6 0
437510.0 85265.0 0
442359.0 88657.4 0
448275.0 87801.8 0
451946.0 83964.3 0
457176.0 84153.6 0
462429.0 85643.5 0
466599.0 84229.3 0
470193.0 85409.5 0
472372.0 88731.6 0
475181.0 84209.1 0
480797.0 85857.7 0
486589.0 83840.9 0
492077.0 86091.3 0
2238.62 90858.3 0
8050.24 93499.3 0
11843.3 89475.1 0
16323.4 89555.0 0
17752.4 93399.4 0
20502.9 89565.1 0
27043.8 90013.0 0
32615.9 89846.4 0
38263.8 89621.8 0
42970.7 90008.8 0
47588.9 88874.9 0
49063.6 93666.2 0
51800.6 90639.8 0
56554.6 90160.0 0
62115.1 90129.9 0
67697.8 89789.5 0
73695.4 90102.6 0
78211.1 90542.7 0
81954.5 89717.5 0
86960.3 89748.3 0
92531.5 90105.2 0
97548.4 89502.4 0
102630.0 90649.8 0
107924.0 88913.8 0
116732.0 89975.2 0
112494.0 90187.4 0
120857.0 89825.4 0
125864.0 89205.7 0
123420.0 93812.9 0
131158.0 90904.5 0
136445.0 90856.8 0
140992.0 88801.4 0
146305.0 89919.8 0
151834.0 91517.6 0
156828.0 93792.8 0
161703.0 90348.9 0
166528.0 92167.2 0
176294.0 89577.0 0
182233.0 93278.9 0
188048.0 90055.2 0
194261.0 89780.1 0
199972.0 89221.9 0
208111.0 89875.1 0
204288.0 90217.1 0
217709.0 90322.6 0
222564.0 89429.4 0
222020.0 93687.0 0
226872.0 88799.7 0
232444.0 90321.4 0
237422.0 90106.9 0
237874.0 93430.9 0
241792.0 90760.2 0
246841.0 89277.1 0
251784.0 90570.7 0
257738.0 88984.5 0
255872.0 93699.9 0
262720.0 89635.8 0
260336.0 93369.6 0
267489.0 88888.9 0
266349.0 93571.1 0
273047.0 88977.8 0
278361.0 93707.6 0
283554.0 90490.1 0
287216.0 90557.8 0
288758.0 93711.3 0
291017.0 89431.9 0
296734.0 89056.7 0
302234.0 90192.4 0
307700.0 89580.1 0
313207.0 90705.3 0
318188.0 89694.1 0
326812.0 90589.0 0
336512.0 89318.9 0
331856.0 90304.7 0
339780.0 93645.3 0
346846.0 88831.8 0
351893.0 90006.8 0
361261.0 88920.2 0
357349.0 92516.8 0
366551.0 92684.2 0
371101.0 89864.8 0
377673.0 89380.7 0
382813.0 93437.7 0
392424.0 89355.5 0
388338.0 91110.0 0
397217.0 89315.2 0
402858.0 89752.2 0
408059.0 93798.4 0
414413.0 91003.9 0
419145.0 89425.2 0
427686.0 90821.3 0
437342.0 89436.9 0
437115.0 93631.8 0
446524.0 92798.8 0
450849.0 93296.2 0
454178.0 89368.4 0
458992.0 90418.0 0
463188.0 90181.0 0
467519.0 90288.1 0
472594.0 93691.0 0
477746.0 89679.9 0
482622.0 90552.6 0
487506.0 91655.4 0
491506.0 90152.7 0
496591.0 89761.8 0
2182.12 95272.4 0
13471.9 94101.9 0
11905.5 97842.0 0
17161.7 98578.6 0
22417.3 93938.6 0
26989.0 95935.9 0
30224.4 98673.4 0
32072.8 94133.8 0
37589.4 94826.5 0
39764.4 98890.6 0
43206.1 95071.8 0
48583.0 98890.6 0
53807.2 95340.5 0
59223.0 94838.8 0
63617.0 94461.4 0
68064.9 95461.4 0
72603.0 94978.3 0
77068.8 94462.0 0
82136.1 94738.5 0
87334.0 94922.1 0
92269.2 95435.8 0
97732.1 94854.6 0
102767.0 96106.2 0
107685.0 94412.0 0
113113.0 94516.7 0
118139.0 94451.3 0
127500.0 95369.4 0
137738.0 94770.8 0
132691.0 95732.5 0
142524.0 94920.3 0
147012.0 98805.2 0
148002.0 94528.0 0
153419.0 96171.0 0
160406.0 95161.8 0
164429.0 95870.6 0
167047.0 98745.1 0
170842.0 94753.2 0
177032.0 96145.0 0
186625.0 95689.5 0
191646.0 95176.5 0
197223.0 94507.3 0
203055.0 94361.2 0
208748.0 96221.3 0
214360.0 94264.2 0
218717.0 95571.4 0
216320.0 98881.2 0
227505.0 94350.0 0
234332.0 94700.8 0
237943.0 98166.9 0
241749.0 95360.9 0
246211.0 94462.3 0
251518.0 95829.1 0
257727.0 98882.1 0
262636.0 96944.1 0
271756.0 95246.6 0
284358.0 95229.1 0
292983.0 95427.0 0
298941.0 95356.6 0
303985.0 95589.0 0
307500.0 95412.9 0
316257.0 94408.5 0
312166.0 95231.6 0
321079.0 93932.7 0
316965.0 98845.2 0
325851.0 95521.7 0
329893.0 94131.1 0
334357.0 96128.0 0
346088.0 95086.4 0
352844.0 95582.4 0
361674.0 94908.0 0
367104.0 97591.4 0
371934.0 95498.6 0
377880.0 96832.0 0
387369.0 95295.3 0
393045.0 96027.5 0
399508.0 94922.0 0
403054.0 98924.5 0
404321.0 94948.7 0
408162.0 98648.5 0
412346.0 95467.7 0
416948.0 94807.3 0
421365.0 96053.8 0
425659.0 94448.6 0
427477.0 98898.2 0
431067.0 94891.4 0
436128.0 98616.3 0
441812.0 94243.1 0
448332.0 98310.0 0
455407.0 95141.0 0
461200.0 94830.3 0
466976.0 94614.0 0
473889.0 98907.4 0
478847.0 95179.0 0
484704.0 95693.6 0
489148.0 96417.8 0
492124.0 94008.2 0
496754.0 96404.3 0
1482.51 99947.0 0
2749.66 103985.0 0
7155.21 99807.1 0
12671.4 102347.0 0
23053.2 99322.7 0
28648.6 102720.0 0
34875.1 99467.6 0
39135.5 103732.0 0
43683.4 100725.0 0
53135.1 101342.0 0
57213.6 99231.0 0
63064.7 99236.5 0
68310.3 100637.0 0
73401.4 99036.4 0
72212.3 102915.0 0
78302.5 99610.5 0
83593.8 99679.2 0
88398.2 99739.4 0
92508.9 100278.0 0
97237.0 100270.0 0
101195.0 100336.0 0
105585.0 99928.1 0
111306.0 99100.6 0
111043.0 103950.0 0
116640.0 99709.5 0
122098.0 99003.1 0
126931.0 99411.2 0
131218.0 100113.0 0
136577.0 99320.9 0
142212.0 100614.0 0
151801.0 100738.0 0
157942.0 99730.5 0
163657.0 100356.0 0
171003.0 100761.0 0
176728.0 102436.0 0
182933.0 100199.0 0
193693.0 99262.1 0
189204.0 100095.0 0
198249.0 100395.0 0
203174.0 99462.1 0
202629.0 104038.0 0
207321.0 101602.0 0
212115.0 100473.0 0
221175.0 99220.7 0
226331.0 100988.0 0
231983.0 99199.3 0
236017.0 103150.0 0
242843.0 100017.0 0
248029.0 99540.4 0
252898.0 99857.3 0
250904.0 104007.0 0
262829.0 102523.0 0
267587.0 99523.1 0
272697.0 101132.0 0
278480.0 100362.0 0
283573.0 99815.8 0
282084.0 103746.0 0
288835.0 99031.8 0
293487.0 100025.0 0
297506.0 101402.0 0
302639.0 99894.3 0
301871.0 103821.0 0
307115.0 100254.0 0
311941.0 99972.8 0
316864.0 103970.0 0
322296.0 99528.1 0
330937.0 99646.1 0
327150.0 100392.0 0
333887.0 103875.0 0
341522.0 99138.9 0
337123.0 100025.0 0
346658.0 101054.0 0
351577.0 101233.0 0
355550.0 103358.0 0
357892.0 99095.0 0
362982.0 99882.2 0
370164.0 101040.0 0
374541.0 101054.0 0
383272.0 99449.3 0
383421.0 103588.0 0
387240.0 103947.0 0
388210.0 99475.8 0
392170.0 102274.0 0
397892.0 100859.0 0
411971.0 103233.0 0
414685.0 99115.5 0
417929.0 100368.0 0
422500.0 100915.0 0
427294.0 103152.0 0
431263.0 100320.0 0
437085.0 103948.0 0
441996.0 99903.4 0
454028.0 100302.0 0
459446.0 100443.0 0
464982.0 99720.8 0
469647.0 100572.0 0
477663.0 101980.0 0
481986.0 100133.0 0
486773.0 100029.0 0
492177.0 100585.0 0
497457.0 102140.0 0
7838.89 106328.0 0
13610.0 108195.0 0
18088.5 104349.0 0
[...]
POINT_DATA 5000
SCALARS Radius float 1
LOOKUP_TABLE default
5253.55 5782.6 6044.04 5415.48 5120.0 5580.89 6810.52 5529.52 6756.95 6324.23 3843.58 4270.53 5191.63 4861.06 5320.28 4797.52 4796.58 3979.26 4298.67 3471.03 5960.66 5820.48 7034.11 4862.21 5113.21 3929.19 4107.03 4478.15 5379.87 5925.6 4501.51 4792.73 4736.58 4931.38 3485.26 4329.05 4151.94 4049.23 5337.48 6124.89 5708.81 5252.48 4780.03 5495.39 3996.0 3856.1 4665.12 3383.4 4133.88 4834.9 3850.77 5085.53 3863.18 2356.98 4998.37 6182.6 5492.18 5258.36 5061.3 3642.12 3163.97 5812.43 5122.66 5906.14 5484.19 7513.1 5254.28 4436.4 5733.48 4672.91 3588.44 5645.7 5176.86 5840.26 3672.51 6110.27 5561.06 5073.35 3615.22 5670.04 4380.59 3589.27 6716.79 3607.45 5759.91 7613.27 4951.03 5255.32 6037.08 4523.7 5096.78 4129.43 6142.94 3320.52 4727.24 4194.5 5082.47 5344.25 5445.87 4593.7 4150.99 4704.72 4216.92 4177.94 4742.68 4344.58 5634.83 5495.84 6268.1 5374.51 6739.08 6326.39 4569.12 5873.69 6608.73 5011.84 6261.42 4502.5 3771.48 4043.57 4271.69 5681.38 4138.42 3708.04 5513.6 3240.09 4556.36 6082.81 3191.99 4685.34 5601.05 4929.8 3586.91 3103.0 3554.9 4015.92 5542.21 4487.31 3936.02 4044.71 5980.74 4094.62 5109.54 4927.02 5546.39 5325.36 5945.65 5484.83 5538.89 5351.6 4730.36 4715.55 5867.73 3951.75 5013.56 5701.86 4499.64 4375.68 5542.27 5054.98 6030.06 5170.02 3557.27 4927.31 4688.68 4402.52 4517.56 4182.53 5903.42 3968.64 3955.56 3761.32 4118.05 4366.19 5553.16 2938.66 4940.78 4231.61 4008.92 4003.05 3942.53 3379.84 4827.82 5227.21 3997.1 3260.67 5123.52 4091.31 3038.33 4392.68 4333.2 4295.38 7199.21 2240.39 5923.5 5091.39 5293.9 3912.37 4602.25 6691.39 4790.08 4763.45 5344.0 6045.46 3815.26 5908.1 6048.7 4571.7 5896.46 5022.8 3784.5 3780.23 4166.08 6481.79 5224.12 7042.12 4819.73 4471.58 6098.14 4962.09 3999.48 4203.26 4359.62 6946.21 2586.12 5433.8 4011.77 5499.11 4527.08 3633.87 5922.5 5198.77 5987.17 6013.14 2765.2 4901.41 5110.37 5664.98 4382.74 5927.43 4651.28 3693.63 4384.42 4516.43 5481.78 4948.92 5637.59 4937.14 5043.05 5816.2 5693.81 4174.52 6483.19 3829.13 6759.9 5418.62 7021.47 5416.38 6059.59 4955.55 2720.68 3563.63 4238.81 4345.55 4468.59 5885.03 2837.58 3871.88 5325.02 5200.76 5017.13 4862.64 5279.39 5185.34 3673.74 4432.58 5205.43 6684.56 7447.37 4688.67 2635.86 4385.06 5292.64 6166.5 5065.13 5936.02 5305.17 4861.08 5390.22 4805.87 4712.33 6038.78 5697.78 4667.36 6372.62 4254.17 5090.24 5615.42 7565.34 5530.87 4612.68 4281.49 4973.83 6342.25 4187.56 4840.84 5135.69 4020.32 4245.72 4156.38 4541.21 4164.68 6133.92 3719.84 4178.4 3095.48 5762.59 4123.6 4850.14 5163.55 3382.7 6817.32 4319.79 4472.17 3637.61 6222.42 5188.81 4730.41 3745.84 6057.22 5062.71 4156.2 6125.34 5965.78 5347.48 4850.01 3970.25 5147.67 3979.82 5011.31 5138.31 5264.06 4659.59 6327.9 4048.37 6355.42 4362.19 5690.56 3115.91 3307.12 4493.48 5924.89 4778.34 4002.16 4138.16 3486.22 4684.5 3091.3 6230.49 6458.82 4601.27 5493.32 5740.68 5926.61 6051.14 5836.15 3261.21 4195.44 6704.06 3653.41 5600.93 3856.01 5246.2 4390.66 5728.85 4827.23 6116.18 4924.6 4733.32 7184.19 2899.43 2924.37 4290.3 3867.67 5399.73 4695.45 4660.72 3888.21 5891.05 6902.81 6644.76 5629.19 4786.6 5740.84 6445.94 4310.18 7134.64 5978.9 4716.19 3629.62 5514.76 4997.27 4301.06 4877.67 4290.14 3066.13 6562.18 6006.16 5316.75 7055.53 5669.65 5934.22 5624.49 4970.88 7092.87 4666.81 3703.1 3954.91 6471.55 2965.01 5499.39 6643.85 5501.93 5654.31 4938.74 5690.26 5607.14 4497.59 4374.35 4810.12 5643.58 5215.05 4292.06 3821.72 5577.04 5006.58 4602.86 3688.8 4548.16 3369.23 5449.18 5492.26 4220.88 5244.78 5762.84 3937.74 4749.8 6084.86 5478.92 5551.36 6894.71 4414.54 5789.98 6138.47 7054.71 3641.64 5489.43 5747.75 4277.89 4727.62 5054.25 4796.33 5539.32 5360.19 6496.85 4794.96 4874.39 5541.59 4124.71 5083.08 6337.56 4911.47 5803.39 5863.59 4381.97 4024.3 6257.19 3255.82 5242.73 2812.98 4737.14 4065.69 5603.15 5556.96 6052.7 3921.18 3798.62 6392.01 5308.1 3666.57 4907.89 4937.02 4073.93 5655.21 4645.41 4433.59 4320.28 5542.14 2739.94 4931.53 4218.06 5480.13 6308.71 6405.76 3456.98 3498.2 5105.16 5448.61 4302.5 4827.33 6009.88 5013.67 5826.04 5339.78 4143.78 4763.66 4636.5 4940.42 5923.4 5085.71 5644.82 6343.14 5463.38 5945.21 5750.71 5696.88 4831.47 3923.03 5975.63 5252.34 6396.74 4138.46 2775.04 4986.77 6898.19 6318.18 5586.81 4621.75 3948.17 4551.24 5358.59 4515.71 6519.71 6640.13 5082.6 5810.84 4230.54 5094.44 3748.24 4655.49 4467.94 4933.21 4850.81 6038.14 2540.31 6029.66 5527.54 5573.7 5697.4 4270.95 4055.8 7325.81 5280.17 6425.26 5143.58 6186.19 4839.34 2980.99 6834.49 5525.39 3998.5 5938.34 5380.13 6394.38 5555.28 5169.36 4686.65 5834.74 5788.23 3043.85 5581.75 3599.45 6730.19 4907.06 3735.44 5163.9 6043.3 5952.75 6332.36 6122.55 6155.31 4223.33 5911.67 3323.28 6695.82 5835.78 5794.24 4127.74 4678.38 5050.65 5260.34 5206.48 5513.57 5729.23 5226.0 3365.82 4538.95 5965.15 4780.2 6090.91 4946.42 5019.93 5081.78 6116.33 6263.44 5774.97 5462.21 5470.77 4643.85 4004.04 6062.05 4289.17 5564.02 4274.61 2965.79 4410.55 6035.6 5137.34 4481.53 5330.45 4581.13 3856.59 3610.4 4219.07 5413.79 6387.01 5367.52 3092.35 4322.15 5210.03 4714.54 3629.96 5478.47 5351.39 6142.37 6061.47 5375.47 4566.18 4723.12 5120.49 5201.36 5262.61 6302.8 5409.61 6038.2 4005.44 5206.78 5555.88 6732.43 5028.96 3866.16 6362.12 4484.76 4840.01 4511.82 5611.2 7933.0 4455.12 5173.87 4894.16 5711.87 5118.27 3372.79 4941.22 5932.23 5791.61 3369.13 4479.66 5367.2 5461.13 4726.76 5839.13 5495.68 5489.34 5002.48 5708.14 5537.72 3920.42 8332.24 4553.56 5329.64 6049.55 5709.62 2476.04 5133.97 3942.07 7443.72 3937.08 5371.02 4709.35 6586.45 4373.3 4750.78 4163.5 5724.64 5078.86 5100.1 3561.29 4963.34 4219.78 3295.83 4459.28 4260.92 6250.23 5960.56 4118.84 4020.95 6313.06 3474.39 3493.7 6470.3 4200.03 5082.74 6915.83 6072.45 7099.43 5526.14 5198.29 5423.0 5077.33 4746.52 6338.89 6202.55 5025.39 7111.16 5893.5 4547.19 3320.11 5030.91 6022.17 5119.37 3982.23 6163.38 3459.9 4853.39 4964.09 4809.42 5024.9 4306.53 5659.17 5094.81 5972.06 5713.22 5861.71 4359.04 3183.98 3794.63 4524.28 3778.1 5152.36 5826.64 4220.65 6820.42 4816.2 6321.41 4896.52 4751.02 5184.56 5282.64 4715.72 4669.66 4808.52 5046.33 4764.96 5607.24 4242.52 5053.92 6352.26 3847.38 3818.59 4863.72 4143.08 6623.85 4262.82 5102.36 4342.9 5065.11 5069.84 4051.44 4241.89 5054.74 5941.72 5991.09 5126.91 6600.94 4788.58 6155.1 5876.71 6262.72 5029.78 6515.84 4888.6 2990.77 4739.14 4918.77 4371.99 4188.3 3885.86 5235.29 4479.94 5453.3 6413.02 4863.27 5862.86 6049.79 5374.98 4719.7 6939.12 4735.33 5411.85 5092.37 6444.77 6314.07 4287.63 5315.4 6449.45 3975.31 3689.45 3824.16 5125.78 5572.95 3868.18 4373.47 6723.16 5584.06 3817.13 5507.24 6851.54 4583.31 4503.89 5806.08 5243.29 4997.27 4093.08 4449.22 5543.27 4717.05 5287.2 6135.57 5998.38 4312.67 5013.13 5423.8 4270.24 4989.15 5017.78 5015.69 6175.81 4727.24 4947.52 6677.09 4305.57 6959.81 4829.35 5201.67 4424.7 4089.76 4754.05 5526.55 3192.41 6084.93 5215.15 4987.87 3315.57 4739.42 5804.71 5020.12 5727.3 5281.28 5356.51 4277.88 4087.15 3057.03 4758.21 7500.97 3948.23 5228.18 5787.31 3927.99 5868.82 4978.31 4050.9 4099.77 4537.32 4981.9 4656.78 3600.43 4906.82 5131.24 5196.67 5004.23 6496.67 5474.8 6607.87 3664.11 5117.47 4925.63 5882.65 4434.19 5187.7 4623.61 6261.75 5177.64 4255.31 4094.73 4407.9 3492.19 4584.5 4440.57 5122.63 4703.08 6345.13 5274.19 5516.95 4406.4 4413.85 4844.57 3999.94 4027.46 4470.98 5776.37 4516.28 3921.08 4190.31 3627.82 4044.45 5262.19 5344.43 5045.38 5350.88 5372.61 3686.21 5402.24 6480.17 5023.15 4377.07 3844.9 3813.22 5101.59 5570.3 4336.42 4306.11 7589.94 3130.65 5628.24 5856.11 3327.49 4109.88 4234.94 4562.29 4980.85 5080.66 3417.33 5110.45 4926.42 4164.13 5248.77 4642.34 4520.1 5153.74 5874.89 4293.03 5813.4 4389.21 3791.79 4128.98 4925.44 6246.22 4951.47 4307.28 3697.96 4723.48 5538.93 4899.11 4745.45 2631.9 6255.18 4668.71 5269.18 7228.46 6362.14 6719.88 5978.82 5266.5 4523.88 4066.38 4403.98 4948.98 4414.48 5227.52 4729.43 4092.24 5163.02 7144.24 5598.74 5687.83 6442.69 6320.71 4648.04 3464.83 4721.32 4305.16 3293.56 3163.78 5092.28 5274.14 4903.82 5746.28 4082.47 5511.6 4453.64 4338.08 4517.73 4378.3 5469.47 6134.99 4989.56 4718.54 5548.29 6766.43 2315.64 5916.16 4390.41 5226.56 5599.49 5313.22 4097.57 3905.51 4864.22 3901.8 5759.46 5083.41 5678.96 4244.9 6048.86 6070.58 4285.32 6034.41 5452.83 5130.91 4948.5 4519.22 6445.22 3695.36 4564.34 3963.86 4871.44 3848.93 5076.35 6020.48 5935.47 3402.32 5903.66 4528.49 5004.67 5365.89 5992.26 3960.8 4511.54 5070.39 4923.9 5714.58 5208.32 3296.27 4083.97 4713.25 4607.02 4528.09 3895.51 4165.81 5441.96 6291.51 5174.89 5882.89 4188.32 5246.61 4100.38 3746.31 5344.77 5027.98 5097.87 4278.07 7267.18 6256.02 5320.92 4305.43 4406.1 5034.59 4942.77 4263.33 4454.63 5080.18 5912.61 3279.1 6193.35 4560.84 6086.96 5233.78 5776.57 4562.74 5683.26 5139.5 7493.3 4814.55 3527.05 5698.77 2477.07 6413.11 5529.42 5257.12 4965.89 5659.95 4152.85 2908.7 6415.61 4687.64 4419.71 5660.16 3838.47 2588.37 6736.03 6235.57 3623.87 3087.09 6934.37 6113.95 4050.08 5017.5 5328.22 5563.79 6171.13 2395.5 5511.88 4512.11 7055.42 5486.68 5100.25 5490.43 5022.28 5197.52 4959.34 5383.07 4527.02 4531.14 5013.42 3838.56 6552.22 5651.07 6375.99 5200.05 5234.29 5313.66 5419.37 4466.03 5409.33 4898.94 5196.0 4973.78 3329.99 3947.47 5091.68 7531.29 4204.84 6243.0 6673.96 3556.85 3161.47 3435.9 6390.78 7435.25 4288.3 5370.52 4788.87 4652.29 4495.87 5774.81 6022.72 5498.32 5527.33 5346.27 6475.1 4969.21 2691.29 2845.98 4880.14 5289.52 5314.85 5941.4 5450.44 6510.17 5742.65 5592.32 5381.16 5565.13 3701.27 5653.9 5046.21 4929.14 5894.61 3979.54 5304.13 5944.09 5833.06 4923.41 4497.31 5384.76 6138.12 4428.78 5243.43 4537.14 5551.9 3757.34 4642.66 5329.59 4888.12 5037.06 4541.8 5175.29 5842.56 5887.15 5412.31 7480.41 3423.15 4890.5 3981.07 5452.42 5186.3 6853.85 3497.9 5941.61 5782.48 6248.6 5683.61 3836.45 5805.86 6894.26 4986.51 5339.38 5178.99 5615.35 4591.87 4790.78 4247.15 4502.18 4602.85 6248.81 5872.05 5273.35 4091.8 2651.49 4645.58 5181.4 5512.23 5275.32 5670.2 5985.29 4247.23 4178.15 4613.31 4694.83 4733.04 6119.09 5788.66 5069.25 3903.75 5048.89 4755.47 5935.03 3991.03 5475.8 5314.69 6826.57 4249.46 5965.81 3702.37 4643.31 2330.66 4177.19 6917.52 5402.21 4989.09 6718.19 4982.31 3848.54 4307.48 4425.84 5331.02 4871.96 4863.23 4402.67 4470.61 4631.83 4384.88 6887.27 6008.49 4220.46 4806.34 4287.53 5612.21 5945.08 4968.03 3306.14 5490.58 4863.79 4702.06 3830.46 6031.67 4689.15 4655.16 5409.66 4345.67 3867.19 4765.72 4039.91 4752.14 5276.7 6119.63 4950.97 5512.16 3197.63 4863.96 5191.08 5203.08 5374.07 5163.77 4588.7 4488.85 3766.55 3731.84 4579.69 4901.07 3554.48 6496.52 3436.15 5005.85 4151.76 4020.4 3493.47 4721.02 4596.75 4933.65 5443.58 4558.46 4049.02 4470.4 5311.03 5255.12 6169.11 4027.09 6422.84 5801.99 5379.09 5210.48 4962.77 4853.02 6259.23 5088.44 4711.62 4114.24 4268.65 5349.31 4649.22 5509.42 4354.08 5094.52 4256.43 5936.36 2682.24 4520.62 5229.48 5475.7 4485.99 5127.16 5435.74 4244.99 6050.81 5543.46 6185.89 3997.96 4750.17 5660.85 3460.94 3990.25 3691.0 4752.51 3587.05 6229.37 4236.14 4407.87 5282.91 3797.33 7256.35 4105.55 4800.69 6566.1 3555.86 6386.78 4996.99 4456.39 4896.39 6081.14 5480.83 4607.85 5128.57 6000.7 3169.67 5604.21 5204.04 3361.92 6710.88 5395.14 3967.48 6213.04 5235.11 6622.11 3685.13 4590.55 6790.73 5251.4 5097.69 5857.79 6543.13 5149.72 5036.58 5464.25 5411.02 4752.9 4287.16 5199.44 4062.5 4435.51 5683.95 6027.62 5010.2 4216.17 6484.17 4938.72 4254.37 3374.08 4031.78 6098.1 5708.99 5687.85 5346.68 5296.29 4611.53 4896.11 4285.66 5094.48 5172.53 3872.61 4135.62 5534.94 7644.38 7552.94 6101.92 5323.3 4998.21 4635.6 4662.56 5166.79 2976.22 3405.98 5394.55 3688.16 4681.72 4946.74 5996.33 5928.32 5415.19 4612.62 4016.18 3619.07 5526.75 4275.57 6385.23 5327.45 2983.99 5560.26 6363.92 6205.93 4439.35 5830.72 6184.4 3758.07 3828.81 4373.45 4082.57 5733.62 5169.9 5282.51 4460.92 5945.89 4042.28 4421.12 4340.76 5254.49 6065.22 4221.28 5514.84 3633.79 3914.2 5421.53 5937.08 6070.3 4135.08 5233.29 4312.56 4612.06 4750.58 5053.95 5926.11 6667.68 5767.9 5211.38 5089.62 4741.26 5920.32 4255.85 4732.09 3988.3 6136.49 4356.25 4216.95 5776.96 5742.74 5486.48 5301.47 4617.55 3645.12 5424.88 5415.85 8659.64 5469.13 4233.8 5765.42 6123.03 5966.61 5711.11 4575.94 5021.88 3546.71 5956.65 5768.57 5564.23 5950.04 4231.83 2435.33 6401.43 4074.48 4558.47 5020.71 2681.29 5997.88 5839.71 4238.4 5576.92 4318.48 6132.95 5266.22 4860.33 3685.13 3312.06 6004.68 4051.34 3361.26 6799.4 3627.55 6239.84 4256.67 5865.39 3457.48 3931.07 6079.11 6430.39 5417.15 3949.6 4945.39 6326.18 3950.63 5661.62 6631.19 6648.68 4467.04 5626.61 5817.25 2614.4 5061.98 4537.6 4923.24 4419.61 7177.44 4563.46 5309.98 6553.94 5255.18 5460.65 3004.16 4767.78 5235.17 4779.5 4929.75 4435.36 6649.96 4303.19 5134.39 5784.3 4256.57 5442.32 6088.68 4643.56 5620.74 4778.82 6124.08 5467.84 5266.01 5253.37 6515.8 5869.4 3685.65 3701.16 4916.22 4186.6 5895.77 5750.07 4757.74 6045.67 4209.49 3821.94 4244.21 4947.24 3875.05 3540.11 6200.54 4652.01 5148.58 4199.45 7234.66 6599.66 4055.54 6098.95 4997.83 4893.49 5325.44 5102.75 4200.09 4597.29 4498.25 5931.77 4188.87 5151.21 3735.24 6574.95 6333.29 4477.04 5731.57 6408.83 5365.24 3930.79 4004.35 5226.97 5754.18 5180.76 3418.99 4480.95 5278.36 4409.63 5521.25 4427.28 3082.32 5370.85 5949.46 3658.37 7440.72 5376.71 5703.6 4807.28 4867.08 4266.03 5280.69 4713.74 4220.03 6923.84 5407.78 4084.49 5449.46 6179.96 6632.99 6113.54 5147.36 6260.79 3963.76 5528.53 6799.88 3062.43 5726.66 5426.78 5652.0 2967.38 5463.41 4159.35 5225.33 4237.98 6439.37 6045.22 4614.3 3532.3 5769.98 5067.46 2221.99 3580.58 4863.01 2775.69 5356.79 4785.25 5657.36 3619.79 5029.47 6306.21 2978.76 2040.66 7016.27 5884.9 3876.21 4673.35 5689.26 4992.42 6022.7 4940.84 4833.46 4809.67 7248.4 5280.12 3946.28 5984.81 5439.9 5367.73 4409.27 4640.06 3456.47 5471.74 5421.64 3548.39 4858.51 4207.54 4886.12 6419.12 4976.12 4817.16 5453.98 3991.42 5148.08 4388.63 4834.87 5938.17 5398.64 6817.57 3614.96 3886.68 5703.74 5662.55 5737.92 4360.23 3056.7 3755.95 5293.51 4763.96 4446.06 3450.93 5008.63 5132.68 4993.35 6218.95 3661.9 5222.16 5107.23 5136.08 3178.54 3776.94 5558.68 4765.02 5629.39 4448.13 2684.03 5070.29 4768.61 2261.36 5075.55 6719.94 5227.59 6166.29 5453.6 5703.07 5294.77 4662.43 4630.82 4043.66 4813.08 4540.86 5990.52 4835.83 5604.35 6477.91 3091.67 4081.97 5401.99 5580.92 5973.33 3583.21 4347.74 2511.46 4009.62 5291.9 4011.37 6505.78 5461.55 6519.43 5876.64 5424.46 4857.84 4908.49 4962.21 4684.44 4858.44 3468.42 3809.69 4771.13 5297.19 4351.38 5550.75 5933.7 5466.33 4444.97 5721.05 3498.16 4247.69 4514.39 4588.99 4321.21 4344.34 3673.28 4928.27 3583.49 3375.28 5625.65 4301.61 3184.64 6107.89 4446.84 5660.55 3718.69 4514.79 5760.22 3672.21 2216.82 4795.43 5269.38 5097.95 5108.06 3573.73 4693.52 4000.43 6853.04 3420.08 4745.43 5831.96 4539.07 4747.55 5464.68 6234.32 4586.19 4585.31 6625.18 5323.91 4270.74 6293.89 6595.03 4558.15 4983.39 5366.52 4690.55 5533.72 5533.42 4802.32 4010.57 4599.38 5246.47 6157.04 6191.29 4522.21 7422.36 5506.19 5161.01 4950.67 4628.4 5832.37 4642.93 5409.63 4263.16 4709.05 3077.84 6024.75 6109.49 5860.67 5332.65 3764.1 5413.31 6316.56 4332.87 6420.81 4743.59 5208.14 4715.58 3317.83 4450.7 5151.52 5369.08 3101.75 4518.04 4766.06 2081.58 4874.18 5435.19 3298.2 4270.15 6865.76 6449.64 6464.8 4406.05 4749.59 4680.94 5799.69 5571.72 5236.43 3208.96 7051.9 4184.23 4608.41 4144.57 5980.59 6834.41 6226.14 3000.29 4209.31 5718.28 6242.79 5950.45 5713.03 5849.65 5052.84 4366.74 4165.21 5297.16 4936.96 5206.33 5530.49 5653.03 6192.0 4509.89 4940.28 6752.75 5885.28 3004.34 5607.3 3022.6 2928.82 4914.45 4811.76 4222.4 4698.87 4568.41 4912.04 3624.7 4691.91 4475.83 2685.81 4510.8 5591.76 5889.35 5010.04 4570.98 5097.45 2761.07 5737.75 5742.47 3778.02 6552.21 7132.12 3678.08 4836.16 5518.57 4187.31 5463.48 5730.33 3240.51 4527.99 4376.7 4298.15 5190.61 8325.01 6051.83 4440.81 5941.9 3973.12 6642.76 4497.78 5567.93 4243.79 5987.42 4442.22 6451.33 4669.06 3012.99 6400.08 5829.32 4396.25 3763.05 5092.24 5551.95 5549.49 3918.87 5423.42 6605.86 5012.5 7093.13 4953.1 5818.95 4093.99 3604.14 3940.49 4452.54 5089.1 2711.19 5828.35 5876.72 4099.92 5285.07 4884.59 3858.06 4680.14 4083.79 4187.94 5021.77 3796.15 5599.29 4801.8 7216.98 5271.02 7013.17 3805.67 4601.74 5088.57 5580.34 5134.67 3852.6 5775.31 4215.0 4603.5 4481.76 5452.78 5065.26 4304.41 4892.44 5578.94 4286.17 6579.31 5323.55 5375.1 5313.12 5351.56 4661.03 5160.59 3984.88 5262.35 4320.42 4255.34 5064.79 5480.3 7509.24 4394.56 5896.26 4275.07 5388.78 5825.38 4185.61 4047.87 4573.72 5099.21 4917.99 4367.78 5417.8 5146.37 5670.0 4232.16 5300.96 5151.11 5680.94 3781.77 5545.46 5581.55 5193.01 4543.1 6550.44 3860.83 3764.06 4523.39 5278.56 5434.47 5829.22 5631.14 4343.78 5811.18 5433.65 4008.15 4887.76 7693.4 4811.32 4286.49 4437.07 6184.88 3449.37 6405.0 4659.16 5789.55 2275.45 4633.05 4901.2 4383.56 4990.79 3562.79 5166.79 6479.39 2895.63 4516.53 4122.92 5079.22 5381.54 5810.77 5474.15 4028.32 7519.2 6355.68 4511.7 4478.6 4304.63 5263.27 4469.54 6300.92 4173.54 6038.68 5046.12 4807.4 4590.01 6101.86 6506.86 5993.0 4803.57 5966.42 4110.59 4706.5 3332.49 5354.66 4647.67 4214.44 5375.12 4356.36 4787.97 3746.36 7610.49 4777.03 3684.56 6028.09 5452.36 4172.6 3804.5 6486.37 5498.42 5318.53 4732.09 4281.98 7165.9 5344.83 4146.81 4863.97 6342.48 6101.13 5756.75 5599.7 6969.28 5636.4 3665.95 5698.96 4350.12 4095.75 5227.02 3603.51 4298.45 5222.51 6609.84 4344.51 5135.96 3834.43 5658.37 4707.06 6074.94 3474.5 5491.37 4250.88 6348.03 5732.27 3475.67 4792.39 7038.89 5146.37 6917.62 4013.38 5067.56 6137.8 5263.3 3352.35 4909.65 3747.03 6523.86 2783.85 4326.48 3994.07 4219.94 5907.46 5491.9 4264.91 5399.29 4909.31 6522.59 5711.62 4798.17 5425.98 5996.66 4405.42 4997.91 2995.67 3598.08 4599.81 5698.23 4714.83 3608.06 6633.61 5484.36 3953.55 4277.24 4063.9 5291.05 4314.56 3928.53 4619.2 5606.51 5740.65 5067.56 3834.47 6349.67 6329.53 4227.41 5391.48 4923.43 5131.15 4847.14 3950.27 5116.66 5378.23 5374.67 4981.43 6789.23 3989.7 5069.89 4215.2 4157.29 4246.61 6813.72 5327.75 4609.02 4638.18 4196.37 3344.57 6448.66 5220.76 6945.98 5138.2 7046.11 3427.63 4449.98 4504.35 4840.44 5093.82 4587.67 4163.74 3924.14 4296.69 6238.32 3319.67 6471.42 5283.8 4076.59 4428.14 5164.1 6464.15 4972.17 5699.53 4222.77 3783.54 5268.38 5527.23 4805.33 3863.67 4814.12 6193.08 6069.3 2735.53 5887.01 5116.6 5388.39 5335.47 4356.49 4526.81 5048.19 6799.23 6740.71 6487.56 4854.11 5971.22 5533.19 5417.21 6602.43 3568.28 6063.64 5522.21 3772.3 4855.01 7300.58 4923.57 3340.09 5217.95 4867.7 2279.05 4829.35 4075.28 8137.11 5161.1 5166.41 4067.96 7104.73 2596.96 5701.75 4350.15 4139.3 3516.27 6541.45 4750.49 4263.78 5078.31 4643.9 5228.75 5009.83 5210.38 5717.8 3629.44 3566.79 5003.78 3299.24 6246.56 4741.28 2603.64 5107.0 6212.15 4783.07 4896.65 4946.23 6083.28 5211.6 4453.97 3556.79 3503.41 5783.48 4701.5 7001.83 4771.65 5589.37 5439.49 5951.81 6918.35 4834.3 6804.79 6372.13 5369.5 5404.01 6016.19 4124.49 4479.11 5714.25 6685.4 5325.96 4850.06 6332.01 7044.29 4234.18 4049.16 7085.01 5980.95 6836.82 3862.77 5168.35 3185.39 3728.18 5633.61 4243.26 4153.84 4888.27 4592.15 4901.44 4998.22 5096.43 6104.26 5583.61 4986.71 7382.3 4022.56 5027.43 5522.75 6208.9 5602.53 6061.63 6545.43 6760.92 5484.32 4711.04 6650.77 4506.18 4824.12 6162.3 3272.75 4264.54 7043.44 6047.14 4061.6 6502.97 4852.58 5806.31 5456.71 7317.04 6412.67 5012.97 4036.91 6639.64 5212.43 5454.12 6348.54 4066.57 5642.35 5156.76 6357.47 6101.57 4891.38 5535.91 3230.13 5955.86 6176.67 4848.46 5412.24 5016.02 2779.99 4920.21 4581.37 5851.61 3936.95 5478.11 6153.94 5526.31 3858.17 4631.99 4740.98 5128.77 7122.87 5797.36 5119.86 5089.26 5084.17 3776.8 6156.21 2460.79 4653.83 6171.71 3628.89 6589.82 4668.88 5867.64 4438.58 6059.93 5073.02 3472.91 4989.2 7144.05 2970.9 6542.5 4383.47 5971.21 6318.23 4206.98 4058.87 5174.75 5932.07 4984.46 5948.71 4793.65 2949.12 3856.53 4532.89 4533.37 