# vtk DataFile Version 2.0
Time step 6
ASCII
DATASET UNSTRUCTURED_GRID
POINTS 5000 float
2395.66 231359.0 0
8287.55 230797.0 0
12439.4 230557.0 0
16782.2 230148.0 0
22243.6 231427.0 0
27721.1 228373.0 0
33093.2 231037.0 0
38057.6 231581.0 0
42578.2 231585.0 0
47500.0 231566.0 0
52137.1 231592.0 0
57024.9 230489.0 0
62763.5 231508.0 0
67994.7 231641.0 0
72685.1 230858.0 0
77500.0 231520.0 0
82500.0 231510.0 0
87421.4 230876.0 0
92500.0 231548.0 0
97243.3 231569.0 0
101343.0 231481.0 0
106011.0 231005.0 0
111902.0 231443.0 0
117816.0 231539.0 0
123295.0 231617.0 0
128310.0 231732.0 0
133393.0 230992.0 0
138090.0 231668.0 0
142500.0 231591.0 0
147500.0 231525.0 0
152501.0 231494.0 0
157572.0 231174.0 0
162524.0 231352.0 0
167032.0 230981.0 0
171839.0 229783.0 0
177753.0 229826.0 0
182960.0 229029.0 0
187432.0 230856.0 0
192500.0 231943.0 0
196143.0 231172.0 0
201771.0 230496.0 0
207665.0 231229.0 0
213016.0 230721.0 0
218143.0 231651.0 0
222494.0 231660.0 0
225859.0 231152.0 0
230417.0 230932.0 0
235812.0 231799.0 0
241174.0 230521.0 0
246492.0 232550.0 0
252644.0 230459.0 0
259004.0 231014.0 0
263741.0 232029.0 0
268732.0 231056.0 0
273930.0 231265.0 0
278866.0 229884.0 0
286336.0 231515.0 0
291724.0 232012.0 0
297321.0 229866.0 0
303627.0 230803.0 0
312128.0 231050.0 0
317929.0 231682.0 0
323246.0 231671.0 0
327586.0 231829.0 0
332212.0 231438.0 0
337229.0 231167.0 0
341036.0 232339.0 0
345946.0 230780.0 0
350803.0 232519.0 0
355420.0 231756.0 0
361946.0 230327.0 0
372031.0 228485.0 0
368028.0 231863.0 0
377039.0 230476.0 0
382629.0 231255.0 0
388136.0 230486.0 0
394018.0 229820.0 0
399127.0 231674.0 0
403584.0 228944.0 0
408530.0 230118.0 0
412500.0 231664.0 0
417500.0 231559.0 0
422634.0 230131.0 0
427283.0 231408.0 0
432537.0 229364.0 0
437537.0 231531.0 0
442216.0 230642.0 0
446361.0 230075.0 0
450752.0 230955.0 0
455294.0 231064.0 0
460284.0 231077.0 0
465840.0 231187.0 0
471671.0 230471.0 0
477094.0 229237.0 0
481389.0 232012.0 0
485863.0 228988.0 0
491667.0 230622.0 0
497601.0 229085.0 0
2262.14 236669.0 0
5940.05 234203.0 0
10994.8 235046.0 0
17191.2 236057.0 0
22903.0 237079.0 0
28438.0 234737.0 0
34888.0 236299.0 0
40258.3 236643.0 0
44386.7 236904.0 0
48173.7 235677.0 0
52500.0 236552.0 0
57939.9 235942.0 0
62804.7 236604.0 0
67505.4 236282.0 0
72212.7 235987.0 0
77500.0 236678.0 0
82116.1 236325.0 0
87872.2 235638.0 0
92500.0 236687.0 0
97210.1 236488.0 0
102467.0 236221.0 0
108274.0 235610.0 0
112500.0 236624.0 0
117500.0 236705.0 0
122500.0 236628.0 0
127705.0 236239.0 0
132476.0 236521.0 0
137520.0 236537.0 0
142763.0 236027.0 0
147039.0 236386.0 0
152049.0 236241.0 0
156986.0 235246.0 0
161412.0 236103.0 0
166627.0 235660.0 0
172882.0 235369.0 0
178284.0 235249.0 0
183442.0 234107.0 0
188512.0 235335.0 0
193491.0 236110.0 0
198182.0 235579.0 0
203919.0 236125.0 0
213695.0 235272.0 0
209352.0 236384.0 0
217672.0 236696.0 0
222107.0 236663.0 0
226895.0 235378.0 0
232240.0 236235.0 0
237754.0 237026.0 0
243353.0 236982.0 0
248358.0 236663.0 0
252579.0 237064.0 0
257167.0 235632.0 0
262343.0 236220.0 0
267245.0 235957.0 0
271699.0 235244.0 0
276904.0 235636.0 0
282036.0 233195.0 0
282784.0 236892.0 0
287500.0 236602.0 0
292742.0 236545.0 0
298188.0 235386.0 0
303029.0 236463.0 0
307762.0 233257.0 0
307486.0 236577.0 0
312501.0 236796.0 0
317499.0 236559.0 0
322497.0 236148.0 0
327500.0 236582.0 0
332500.0 236654.0 0
337667.0 236079.0 0
343259.0 235412.0 0
347674.0 235970.0 0
352639.0 236479.0 0
361575.0 235639.0 0
357898.0 236184.0 0
365259.0 235586.0 0
373051.0 235261.0 0
378905.0 234989.0 0
382073.0 236171.0 0
388254.0 235577.0 0
393435.0 235891.0 0
398019.0 236295.0 0
402910.0 235133.0 0
408288.0 234393.0 0
412773.0 235655.0 0
417444.0 236056.0 0
422206.0 234780.0 0
427934.0 236419.0 0
433227.0 234633.0 0
437500.0 236596.0 0
443125.0 234973.0 0
447483.0 234119.0 0
451868.0 235473.0 0
457082.0 235858.0 0
462431.0 236879.0 0
466672.0 235746.0 0
470228.0 236988.0 0
475203.0 235767.0 0
480837.0 237280.0 0
486635.0 235324.0 0
492123.0 237529.0 0
496848.0 234595.0 0
2238.62 242191.0 0
6798.95 239213.0 0
11878.8 241057.0 0
16333.2 241271.0 0
20499.6 241090.0 0
26933.6 241559.0 0
32564.3 241370.0 0
38108.9 241161.0 0
42820.5 241309.0 0
47479.1 240395.0 0
51728.0 242054.0 0
56471.8 241552.0 0
62027.3 241636.0 0
67594.2 241128.0 0
73575.3 241583.0 0
78244.7 241872.0 0
81989.1 241052.0 0
86993.3 241162.0 0
92531.5 241438.0 0
97545.3 241007.0 0
102630.0 241983.0 0
107938.0 240382.0 0
112500.0 241544.0 0
116775.0 241377.0 0
120875.0 241173.0 0
125894.0 240627.0 0
131192.0 242305.0 0
136477.0 242170.0 0
141049.0 240176.0 0
146366.0 241269.0 0
151884.0 242897.0 0
156304.0 239796.0 0
161742.0 241795.0 0
170075.0 240250.0 0
176367.0 241059.0 0
182246.0 239280.0 0
188111.0 241505.0 0
194312.0 241116.0 0
200024.0 240638.0 0
208088.0 241207.0 0
204283.0 241697.0 0
213293.0 240077.0 0
217709.0 241656.0 0
222549.0 240945.0 0
227003.0 240371.0 0
232500.0 241698.0 0
237520.0 241475.0 0
241877.0 242082.0 0
246984.0 240816.0 0
251953.0 241995.0 0
257630.0 240384.0 0
262624.0 241004.0 0
267395.0 240424.0 0
272949.0 240531.0 0
279872.0 239579.0 0
283572.0 241826.0 0
287233.0 241907.0 0
291081.0 240944.0 0
296787.0 240461.0 0
302261.0 241707.0 0
307707.0 241008.0 0
313215.0 242080.0 0
318226.0 241287.0 0
322502.0 240151.0 0
326866.0 241868.0 0
336539.0 240759.0 0
331910.0 241826.0 0
341424.0 239640.0 0
346832.0 240368.0 0
351921.0 241320.0 0
356099.0 240024.0 0
361317.0 240337.0 0
366597.0 239681.0 0
371225.0 241403.0 0
377772.0 240914.0 0
384412.0 239514.0 0
392455.0 240746.0 0
388439.0 242644.0 0
397243.0 240669.0 0
402854.0 241353.0 0
409202.0 240022.0 0
414339.0 242574.0 0
418960.0 240778.0 0
424044.0 239638.0 0
427696.0 242502.0 0
432198.0 240275.0 0
437244.0 241238.0 0
442203.0 240192.0 0
448091.0 239194.0 0
453922.0 240948.0 0
458786.0 241731.0 0
462900.0 241453.0 0
467500.0 241707.0 0
472415.0 240289.0 0
477818.0 241184.0 0
482709.0 241941.0 0
487577.0 243043.0 0
491564.0 241585.0 0
496625.0 241199.0 0
2182.12 246606.0 0
8066.45 245047.0 0
13347.9 245645.0 0
17654.3 245124.0 0
22324.5 245490.0 0
26891.9 247410.0 0
31978.0 245652.0 0
37477.6 246354.0 0
43166.9 246364.0 0
49071.0 245144.0 0
53807.2 246674.0 0
59139.7 246227.0 0
63539.1 245962.0 0
68018.4 246792.0 0
72568.4 246472.0 0
77081.9 245832.0 0
82149.1 246071.0 0
87341.5 246333.0 0
92284.5 246748.0 0
97762.3 246353.0 0
102771.0 247693.0 0
107714.0 245872.0 0
113073.0 245893.0 0
118103.0 245876.0 0
123378.0 245189.0 0
127500.0 246703.0 0
132634.0 247158.0 0
137711.0 246103.0 0
142515.0 246330.0 0
147935.0 245920.0 0
156833.0 245335.0 0
153344.0 247588.0 0
160445.0 246600.0 0
166556.0 243628.0 0
164460.0 247322.0 0
170823.0 246286.0 0
177023.0 247624.0 0
182218.0 244757.0 0
186631.0 247119.0 0
191646.0 246661.0 0
197193.0 245891.0 0
203009.0 245827.0 0
208743.0 247480.0 0
214401.0 245729.0 0
218813.0 246738.0 0
222283.0 245223.0 0
227751.0 245891.0 0
234086.0 246194.0 0
237590.0 244828.0 0
242064.0 246669.0 0
246566.0 246014.0 0
251600.0 247206.0 0
255989.0 245181.0 0
260450.0 244858.0 0
266424.0 245135.0 0
271811.0 246842.0 0
278352.0 245080.0 0
284319.0 246672.0 0
288707.0 245151.0 0
292933.0 246844.0 0
298885.0 246796.0 0
303924.0 246921.0 0
307500.0 246746.0 0
312232.0 246556.0 0
321121.0 245519.0 0
316304.0 246062.0 0
325928.0 246991.0 0
329985.0 245668.0 0
334467.0 247607.0 0
339851.0 245046.0 0
346120.0 246622.0 0
352868.0 246894.0 0
357452.0 243970.0 0
361793.0 246317.0 0
366779.0 244367.0 0
371903.0 247032.0 0
377850.0 248269.0 0
382824.0 245005.0 0
387332.0 246788.0 0
392989.0 247074.0 0
399456.0 246439.0 0
408034.0 245334.0 0
404252.0 246292.0 0
412295.0 247028.0 0
416863.0 246371.0 0
421329.0 247232.0 0
425748.0 246167.0 0
431129.0 246475.0 0
437363.0 245430.0 0
442080.0 245792.0 0
446772.0 244312.0 0
451032.0 245177.0 0
455742.0 246556.0 0
461521.0 246315.0 0
467279.0 246299.0 0
472834.0 245210.0 0
479062.0 246652.0 0
484904.0 247147.0 0
489148.0 247798.0 0
492150.0 245422.0 0
496770.0 247837.0 0
1533.37 251394.0 0
7112.91 251316.0 0
11892.3 249427.0 0
17112.0 250278.0 0
23014.7 250848.0 0
30100.9 250178.0 0
34748.6 250988.0 0
39637.9 250395.0 0
43425.4 252453.0 0
48179.6 250303.0 0
52890.7 252416.0 0
57104.1 250602.0 0
62998.0 250736.0 0
68283.3 251966.0 0
73170.2 250557.0 0
78080.3 251027.0 0
83369.7 251062.0 0
88172.3 251190.0 0
92500.0 251611.0 0
97355.3 251767.0 0
101312.0 251657.0 0
105713.0 251415.0 0
111380.0 250520.0 0
116706.0 251159.0 0
122151.0 250396.0 0
126931.0 251180.0 0
131252.0 251564.0 0
136592.0 250664.0 0
142208.0 252021.0 0
147000.0 250208.0 0
151775.0 252165.0 0
157904.0 251116.0 0
167075.0 250191.0 0
163688.0 251799.0 0
170982.0 252282.0 0
182853.0 251539.0 0
193608.0 250783.0 0
189112.0 251524.0 0
198195.0 251737.0 0
203132.0 250924.0 0
207370.0 252853.0 0
212148.0 251699.0 0
216414.0 250321.0 0
221268.0 250374.0 0
226339.0 252305.0 0
232062.0 250844.0 0
237964.0 249549.0 0
242929.0 251196.0 0
248129.0 251162.0 0
252960.0 251384.0 0
257780.0 250378.0 0
262690.0 248463.0 0
267637.0 251000.0 0
272707.0 252724.0 0
278456.0 251748.0 0
283552.0 251252.0 0
288809.0 250469.0 0
293463.0 251434.0 0
297475.0 252827.0 0
302639.0 251228.0 0
307227.0 251584.0 0
312052.0 251285.0 0
317136.0 250473.0 0
322474.0 251079.0 0
331139.0 251211.0 0
327336.0 251869.0 0
341423.0 250493.0 0
337088.0 251592.0 0
346936.0 252469.0 0
351856.0 252595.0 0
357897.0 250406.0 0
362950.0 251314.0 0
367165.0 249277.0 0
370360.0 252575.0 0
374705.0 252602.0 0
383224.0 250918.0 0
388172.0 250936.0 0
392252.0 253535.0 0
398022.0 252407.0 0
403097.0 250300.0 0
408179.0 250225.0 0
414566.0 250600.0 0
417868.0 251691.0 0
422651.0 252034.0 0
427448.0 250488.0 0
431119.0 251903.0 0
436003.0 250314.0 0
441837.0 251430.0 0
448129.0 249941.0 0
453889.0 251554.0 0
459251.0 251809.0 0
464743.0 251140.0 0
469288.0 252334.0 0
473442.0 250524.0 0
477664.0 252889.0 0
482156.0 251603.0 0
486902.0 251494.0 0
492255.0 252070.0 0
497502.0 253578.0 0
2721.3 255456.0 0
[...]
POINT_DATA 5000
SCALARS Radius float 1
LOOKUP_TABLE default
4796.58 3979.26 3471.03 5253.55 5820.48 5782.6 4862.21 5113.21 3929.19 4107.03 4478.15 5379.87 5925.6 4501.51 4792.73 4736.58 4931.38 3485.26 4329.05 4151.94 4049.23 5337.48 6124.89 5708.81 5252.48 4780.03 5495.39 3996.0 3856.1 4665.12 3383.4 4133.88 4834.9 3850.77 6044.04 5415.48 5120.0 3863.18 2356.98 4998.37 6182.6 5492.18 5258.36 5061.3 3642.12 3163.97 5812.43 5122.66 5906.14 5484.19 7513.1 5254.28 4436.4 5733.48 4672.91 5580.89 5645.7 5176.86 6810.52 5840.26 6110.27 5561.06 5073.35 3615.22 5670.04 4380.59 3589.27 6716.79 3607.45 5759.91 7613.27 5529.52 4951.03 5255.32 6037.08 5096.78 6756.95 4129.43 6324.23 3843.58 3320.52 4194.5 4270.53 5344.25 5191.63 4593.7 4150.99 4216.92 4742.68 4344.58 5634.83 5495.84 6268.1 4861.06 5374.51 5320.28 6739.08 4797.52 4569.12 4298.67 5960.66 6608.73 5011.84 7034.11 6261.42 4502.5 3771.48 4043.57 4271.69 5681.38 4138.42 3708.04 5513.6 3240.09 4556.36 6082.81 3191.99 4685.34 5601.05 4929.8 3586.91 3103.0 3554.9 4015.92 5542.21 4487.31 3936.02 4044.71 5980.74 4094.62 4927.02 5546.39 5325.36 5484.83 5085.53 5351.6 4730.36 4715.55 5867.73 3951.75 5013.56 4499.64 4375.68 5542.27 5054.98 6030.06 5170.02 3557.27 4927.31 4688.68 4402.52 4517.56 4182.53 5903.42 3588.44 3955.56 3761.32 4118.05 4366.19 5553.16 3672.51 2938.66 4940.78 4231.61 4008.92 3942.53 3379.84 4827.82 3997.1 3260.67 5123.52 3038.33 4392.68 4333.2 7199.21 4523.7 2240.39 5091.39 5293.9 3912.37 6142.94 4727.24 4602.25 4790.08 5082.47 4763.45 5445.87 3815.26 4704.72 4177.94 4571.7 5896.46 5022.8 3784.5 3780.23 6481.79 5224.12 7042.12 4819.73 6326.39 4471.58 5873.69 4962.09 3999.48 4359.62 6946.21 2586.12 5433.8 4011.77 5499.11 3633.87 5922.5 5198.77 5987.17 6013.14 2765.2 4901.41 5110.37 5664.98 4382.74 5927.43 4651.28 4384.42 3693.63 4516.43 5481.78 5637.59 4937.14 5043.05 5816.2 5693.81 5109.54 6483.19 5945.65 6759.9 5538.89 7021.47 5416.38 6059.59 4955.55 2720.68 5701.86 3563.63 4238.81 4468.59 5885.03 2837.58 5325.02 5200.76 5017.13 4862.64 5185.34 4432.58 6684.56 3968.64 4688.67 2635.86 5292.64 6166.5 5065.13 5936.02 5305.17 4861.08 4003.05 5390.22 4805.87 4712.33 5227.21 5697.78 4667.36 4091.31 6372.62 4295.38 5615.42 7565.34 5923.5 4612.68 4281.49 4973.83 6342.25 6691.39 4840.84 5135.69 5344.0 4020.32 6045.46 4245.72 5908.1 6048.7 6133.92 3719.84 4178.4 3095.48 4166.08 4123.6 4850.14 5163.55 3382.7 6817.32 4319.79 6098.14 4472.17 4203.26 5188.81 4730.41 6057.22 5062.71 6125.34 4527.08 5347.48 4850.01 3970.25 5147.67 3979.82 5011.31 5138.31 5264.06 4659.59 6327.9 4048.37 6355.42 4362.19 5690.56 4948.92 3115.91 4493.48 3307.12 5924.89 4002.16 4174.52 4138.16 3486.22 3829.13 4684.5 6230.49 6458.82 5418.62 4601.27 5493.32 5740.68 5926.61 6051.14 5836.15 3261.21 4345.55 6704.06 3653.41 3871.88 3856.01 5246.2 4390.66 5279.39 3673.74 5205.43 6116.18 7447.37 4924.6 4385.06 4733.32 7184.19 2899.43 2924.37 3867.67 5399.73 4290.3 4660.72 3888.21 5891.05 6038.78 6902.81 6644.76 4254.17 5629.19 5090.24 5740.84 6445.94 5530.87 4310.18 7134.64 5978.9 4187.56 3629.62 4997.27 4301.06 4877.67 4290.14 6562.18 4156.38 5316.75 4541.21 4164.68 5669.65 5934.22 5624.49 5762.59 7092.87 4666.81 3703.1 3954.91 6471.55 2965.01 6643.85 3637.61 6222.42 5654.31 3745.84 5690.26 4156.2 4497.59 5965.78 4374.35 4810.12 5643.58 5215.05 4292.06 5577.04 5006.58 4602.86 3688.8 4548.16 3369.23 5449.18 5492.26 5244.78 5762.84 3937.74 4749.8 6084.86 5478.92 4778.34 5551.36 6894.71 3091.3 4414.54 5789.98 7054.71 3641.64 5489.43 5747.75 4277.89 5054.25 4796.33 4195.44 5539.32 5360.19 6496.85 5600.93 4874.39 5541.59 4124.71 5728.85 4827.23 4911.47 5803.39 5863.59 4381.97 6257.19 3255.82 5242.73 2812.98 4065.69 5603.15 4695.45 6052.7 3921.18 3798.62 5308.1 3666.57 4907.89 4937.02 5655.21 4645.41 4786.6 4433.59 4320.28 5542.14 4218.06 5480.13 6308.71 4716.19 5514.76 3456.98 3498.2 5105.16 3066.13 4302.5 6006.16 6009.88 7055.53 5013.67 5826.04 5339.78 4143.78 4970.88 4763.66 4636.5 4940.42 5923.4 5085.71 5499.39 5644.82 5501.93 5463.38 5945.21 4938.74 5696.88 5607.14 3923.03 5975.63 5252.34 6396.74 4138.46 2775.04 3821.72 4986.77 6318.18 5586.81 3948.17 4551.24 4621.75 5358.59 4220.88 4515.71 6519.71 6640.13 5082.6 5810.84 4230.54 5094.44 3748.24 4655.49 4467.94 4850.81 6038.14 6138.47 2540.31 6029.66 5527.54 5573.7 5697.4 4727.62 4270.95 4055.8 7325.81 5280.17 6425.26 4794.96 6186.19 4839.34 5083.08 6834.49 6337.56 5525.39 3998.5 5938.34 4024.3 6394.38 5555.28 5169.36 4737.14 4686.65 5834.74 5556.96 5788.23 5581.75 6392.01 3599.45 6730.19 4907.06 4073.93 3735.44 6043.3 5952.75 6332.36 6122.55 2739.94 4931.53 4223.33 5911.67 3323.28 6695.82 6405.76 5794.24 4678.38 5448.61 5050.65 4827.33 5206.48 5513.57 5729.23 5226.0 3365.82 4538.95 5965.15 4780.2 6090.91 4946.42 5019.93 5081.78 6116.33 6263.44 6343.14 5774.97 5462.21 5750.71 5470.77 4831.47 4643.85 4004.04 4289.17 5564.02 4274.61 2965.79 6898.19 6035.6 5137.34 4481.53 5330.45 4581.13 4219.07 3610.4 6387.01 5367.52 3092.35 4322.15 5210.03 3629.96 5478.47 5351.39 6142.37 6061.47 4933.21 5375.47 4723.12 5120.49 5262.61 6302.8 5409.61 6038.2 4005.44 5206.78 5555.88 6732.43 5143.58 3866.16 6362.12 4484.76 4840.01 2980.99 5611.2 7933.0 4455.12 5173.87 4894.16 5380.13 5711.87 5118.27 4941.22 5932.23 5791.61 3369.13 4479.66 3043.85 5367.2 5461.13 4726.76 5839.13 5495.68 5489.34 5163.9 5708.14 5537.72 3920.42 8332.24 6155.31 4553.56 5329.64 5709.62 5835.78 4127.74 2476.04 3942.07 7443.72 3937.08 5260.34 4709.35 6586.45 4373.3 4750.78 4163.5 5724.64 5078.86 5100.1 3561.29 4963.34 3295.83 4459.28 4260.92 5960.56 4118.84 4020.95 6313.06 3474.39 6470.3 4200.03 6062.05 5082.74 6915.83 6072.45 4410.55 7099.43 5526.14 5198.29 5423.0 5077.33 3856.59 4746.52 5413.79 6338.89 6202.55 5025.39 4714.54 5893.5 3320.11 5030.91 6022.17 5119.37 3982.23 6163.38 4566.18 3459.9 4964.09 5201.36 4809.42 5024.9 4306.53 5659.17 5094.81 5972.06 5713.22 5861.71 5028.96 4359.04 3183.98 3794.63 4524.28 3778.1 5152.36 4511.82 5826.64 4220.65 6820.42 4816.2 6321.41 4896.52 4751.02 3372.79 5184.56 5282.64 4715.72 4669.66 4808.52 5046.33 5607.24 5053.92 6352.26 3847.38 3818.59 4863.72 5002.48 6623.85 4262.82 5102.36 4342.9 5069.84 4051.44 4241.89 6049.55 5054.74 5941.72 5991.09 5133.97 6600.94 4788.58 5371.02 6155.1 5876.71 6262.72 5029.78 6515.84 4888.6 2990.77 4739.14 4918.77 4371.99 4219.78 3885.86 5235.29 4479.94 6250.23 6413.02 4863.27 5862.86 6049.79 3493.7 5374.98 4719.7 6939.12 4735.33 5411.85 5092.37 6444.77 4287.63 5315.4 6449.45 3975.31 3689.45 3824.16 5572.95 3868.18 6723.16 5584.06 7111.16 3817.13 4547.19 5507.24 6851.54 4583.31 4503.89 5806.08 4997.27 4853.39 4093.08 4449.22 5543.27 4717.05 5287.2 6135.57 5998.38 4312.67 5423.8 4270.24 4989.15 5017.78 5015.69 6175.81 4727.24 6677.09 4305.57 6959.81 4829.35 5201.67 4424.7 4089.76 5526.55 3192.41 5215.15 4987.87 3315.57 5804.71 4764.96 5727.3 4242.52 5356.51 4277.88 3057.03 4087.15 4143.08 7500.97 3948.23 5228.18 5787.31 5065.11 5868.82 4050.9 4978.31 4099.77 4981.9 4656.78 4537.32 5126.91 3600.43 5131.24 5196.67 6496.67 5474.8 3664.11 5117.47 4925.63 5882.65 4434.19 5187.7 4623.61 4188.3 6261.75 5177.64 4255.31 5453.3 4407.9 3492.19 4584.5 5122.63 4703.08 6345.13 5274.19 5516.95 4406.4 4413.85 4844.57 4027.46 4470.98 6314.07 5776.37 4516.28 3627.82 4044.45 5125.78 5344.43 4373.47 5045.38 5350.88 5372.61 3686.21 6480.17 5023.15 4377.07 5101.59 3813.22 5570.3 4336.42 5243.29 7589.94 3130.65 5628.24 5856.11 3327.49 4109.88 4234.94 4562.29 5013.13 5080.66 3417.33 4926.42 4164.13 4642.34 4520.1 4947.52 5874.89 4293.03 5813.4 4389.21 3791.79 4925.44 4754.05 4951.47 6084.93 4307.28 3697.96 4739.42 5538.93 5020.12 2631.9 4745.45 5281.28 6255.18 4668.71 4758.21 7228.46 6362.14 6719.88 5978.82 5266.5 3927.99 4523.88 4066.38 4948.98 5227.52 4414.48 4092.24 5163.02 7144.24 4906.82 5687.83 5004.23 6442.69 6320.71 4648.04 6607.87 4721.32 3163.78 3293.56 5274.14 4903.82 5746.28 4082.47 5511.6 4338.08 4378.3 6134.99 4094.73 4718.54 4440.57 5548.29 6766.43 2315.64 4390.41 5226.56 5599.49 5313.22 3905.51 3999.94 4864.22 3901.8 5759.46 3921.08 4190.31 5678.96 5262.19 4244.9 6070.58 6034.41 5452.83 5130.91 5402.24 4519.22 6445.22 3844.9 3695.36 3963.86 3848.93 4306.11 5935.47 3402.32 5903.66 4528.49 5004.67 5365.89 5992.26 3960.8 5070.39 4980.85 5714.58 5110.45 5208.32 5248.77 4083.97 4607.02 5153.74 3895.51 4528.09 4165.81 6291.51 4128.98 5882.89 6246.22 4188.32 5246.61 4100.38 5344.77 4723.48 5097.87 4899.11 4278.07 7267.18 6256.02 5320.92 5269.18 4406.1 5034.59 4942.77 4263.33 5080.18 4454.63 5912.61 3279.1 4403.98 4560.84 4729.43 5776.57 4562.74 5683.26 5598.74 5139.5 7493.3 4814.55 3527.05 3464.83 5698.77 2477.07 6413.11 4305.16 5092.28 4965.89 5659.95 4152.85 2908.7 4453.64 4517.73 5469.47 5660.16 4989.56 3838.47 2588.37 6736.03 6235.57 3623.87 5916.16 6934.37 6113.95 4050.08 4097.57 5017.5 5563.79 6171.13 5511.88 5083.41 4512.11 7055.42 5486.68 6048.86 4285.32 5490.43 5022.28 5197.52 4959.34 4948.5 4527.02 4531.14 4564.34 3838.56 4871.44 5076.35 6020.48 6375.99 5200.05 5234.29 5313.66 5419.37 4466.03 5409.33 4511.54 5196.0 4923.9 4973.78 3329.99 3947.47 3296.27 4713.25 4204.84 6243.0 6673.96 3556.85 5441.96 3435.9 5174.89 4288.3 5370.52 4652.29 5774.81 3746.31 5498.32 5027.98 5346.27 6475.1 4969.21 2691.29 2845.98 5289.52 5314.85 4305.43 5450.44 6510.17 5742.65 5592.32 5381.16 5565.13 6193.35 6086.96 5233.78 3701.27 5653.9 5046.21 4929.14 5894.61 3979.54 5304.13 5944.09 5833.06 4923.41 4497.31 5384.76 5529.42 5257.12 5243.43 4537.14 5551.9 3757.34 6415.61 4687.64 4419.71 5037.06 4541.8 5175.29 5842.56 5887.15 5412.31 3087.09 3423.15 4890.5 3981.07 5452.42 5328.22 6853.85 3497.9 2395.5 5941.61 5782.48 6248.6 3836.45 5683.61 5100.25 6894.26 4986.51 5339.38 5178.99 5383.07 4591.87 4790.78 5013.42 4247.15 6552.22 5651.07 6248.81 5273.35 4091.8 4645.58 2651.49 5512.23 5275.32 5985.29 4898.94 4178.15 4613.31 4733.04 6119.09 5788.66 5091.68 7531.29 5069.25 5048.89 5935.03 3161.47 3991.03 6390.78 7435.25 6826.57 4788.87 4495.87 3702.37 6022.72 4643.31 5527.33 6917.52 5402.21 4989.09 4880.14 4982.31 4307.48 3848.54 5941.4 5331.02 4871.96 4863.23 4402.67 4470.61 4631.83 4384.88 6887.27 6008.49 4806.34 4287.53 5612.21 5945.08 4968.03 3306.14 5490.58 4863.79 4702.06 3830.46 6031.67 4689.15 6138.12 4428.78 5409.66 4345.67 4765.72 4642.66 4752.14 5329.59 4888.12 4950.97 5512.16 3197.63 4863.96 5191.08 5203.08 7480.41 5163.77 4488.85 3731.84 4901.07 5186.3 3436.15 4151.76 4020.4 3493.47 4596.75 4933.65 5443.58 4558.46 5805.86 4049.02 4470.4 5311.03 5255.12 6169.11 5615.35 4027.09 6422.84 4502.18 5379.09 4602.85 4962.77 5872.05 4853.02 6259.23 5181.4 5670.2 4711.62 4247.23 4114.24 4268.65 4694.83 5509.42 4354.08 4256.43 5936.36 4520.62 3903.75 4755.47 4485.99 5127.16 5475.8 5314.69 6050.81 5543.46 4249.46 5965.81 4750.17 5660.85 2330.66 4177.19 4752.51 3587.05 6229.37 6718.19 5282.91 4425.84 3797.33 7256.35 4800.69 6566.1 3555.86 6386.78 4996.99 4896.39 6081.14 5480.83 4607.85 4220.46 5128.57 6000.7 3169.67 5604.21 3361.92 6710.88 5395.14 3967.48 6213.04 6622.11 3685.13 6790.73 4655.16 5251.4 3867.19 5857.79 4039.91 5276.7 5036.58 6119.63 5411.02 4752.9 4287.16 5199.44 4062.5 4435.51 5374.07 4588.7 5683.95 3766.55 4579.69 3554.48 6496.52 5005.85 4216.17 6484.17 4721.02 4254.37 3374.08 4031.78 6098.1 5708.99 5687.85 5346.68 5296.29 4611.53 4285.66 4896.11 5172.53 4135.62 5801.99 5534.94 5210.48 7644.38 7552.94 6101.92 5323.3 5088.44 4998.21 4662.56 5166.79 5349.31 2976.22 4649.22 5394.55 5094.52 4946.74 2682.24 5928.32 5229.48 5475.7 4016.18 5526.75 5435.74 4244.99 5327.45 5560.26 6185.89 3997.96 4439.35 3460.94 3990.25 3691.0 3758.07 4236.14 4407.87 5733.62 5282.51 4460.92 5945.89 4042.28 4105.55 4340.76 6065.22 4221.28 4456.39 5514.84 3633.79 5421.53 5937.08 6070.3 5233.29 4312.56 4612.06 5204.04 4750.58 5926.11 6667.68 5235.11 5211.38 5089.62 4590.55 4741.26 5920.32 4255.85 5097.69 3988.3 6543.13 5149.72 5776.96 5464.25 5486.48 5301.47 4617.55 3645.12 5424.88 5415.85 8659.64 5469.13 6027.62 5010.2 6123.03 5966.61 5711.11 4575.94 4938.72 3546.71 5768.57 5564.23 5950.04 4231.83 2435.33 6401.43 5020.71 2681.29 5094.48 3872.61 4238.4 4318.48 6132.95 5266.22 4860.33 3685.13 6004.68 4051.34 3627.55 6239.84 4635.6 4256.67 3457.48 3931.07 3405.98 5417.15 3688.16 4681.72 4945.39 5996.33 3950.63 5415.19 4612.62 3619.07 4467.04 4275.57 6385.23 2983.99 2614.4 6363.92 6205.93 4923.24 5830.72 6184.4 3828.81 4373.45 5309.98 4082.57 5255.18 5169.9 3004.16 4767.78 5235.17 4779.5 4421.12 5254.49 6649.96 4303.19 5784.3 4256.57 3914.2 6088.68 4643.56 4135.08 5620.74 4778.82 6124.08 5467.84 5053.95 5266.01 5253.37 5767.9 6515.8 3685.65 5869.4 3701.16 4186.6 5895.77 4732.09 6136.49 4356.25 4216.95 4209.49 5742.74 4244.21 4947.24 3875.05 6200.54 5148.58 4199.45 6599.66 4055.54 4233.8 5765.42 6098.95 4997.83 4893.49 5325.44 5021.88 5956.65 4498.25 4188.87 3735.24 6574.95 4074.48 6333.29 4558.47 5731.57 5997.88 5839.71 5576.92 6408.83 3930.79 5226.97 4004.35 3312.06 5180.76 3361.26 6799.4 5278.36 5865.39 4427.28 6079.11 3082.32 6430.39 3658.37 7440.72 3949.6 5703.6 6326.18 5661.62 6631.19 6648.68 4713.74 5626.61 5817.25 5407.78 4084.49 5061.98 6632.99 4537.6 5147.36 4419.61 7177.44 4563.46 6553.94 5726.66 5460.65 5652.0 5463.41 5225.33 4929.75 4435.36 6045.22 4614.3 5134.39 3532.3 5769.98 5442.32 2221.99 3580.58 4863.01 5356.79 5657.36 3619.79 5029.47 6306.21 2978.76 2040.66 7016.27 5884.9 3876.21 5689.26 4916.22 6022.7 4940.84 5750.07 4809.67 4757.74 6045.67 3946.28 3821.94 5439.9 5367.73 3540.11 3456.47 4652.01 5421.64 7234.66 4207.54 4886.12 6419.12 4976.12 4817.16 5453.98 3991.42 4388.63 5102.75 4597.29 4200.09 5931.77 5151.21 5398.64 6817.57 4477.04 3614.96 3886.68 5703.74 5662.55 5737.92 4360.23 5365.24 5293.51 4763.96 5754.18 5008.63 3418.99 4480.95 4993.35 4409.63 5521.25 3661.9 5370.85 5949.46 3178.54 4765.02 5376.71 4448.13 5070.29 4807.28 4867.08 2261.36 5075.55 4266.03 5280.69 4220.03 6923.84 5227.59 5449.46 6179.96 5703.07 6113.54 4662.43 6260.79 3963.76 5528.53 6799.88 3062.43 5990.52 5426.78 2967.38 4159.35 6477.91 4237.98 6439.37 4081.97 5401.99 5580.92 5973.33 3583.21 5067.46 2511.46 4011.37 2775.69 4785.25 6519.43 5876.64 5424.46 4857.84 4908.49 4962.21 4858.44 3468.42 4673.35 4771.13 4992.42 5297.19 4351.38 4833.46 5933.7 7248.4 5280.12 4444.97 5984.81 3498.16 4409.27 4640.06 4588.99 5471.74 3548.39 3673.28 4928.27 4858.51 3375.28 5625.65 4301.61 6107.89 4446.84 5660.55 5148.08 4834.87 3672.21 5760.22 5938.17 4795.43 5097.95 5108.06 3573.73 4693.52 6853.04 4745.43 5831.96 4747.55 3056.7 3755.95 6234.32 4586.19 4446.06 3450.93 4270.74 5132.68 6595.03 4558.15 6218.95 5222.16 5107.23 5136.08 5558.68 3776.94 4802.32 4010.57 5629.39 2684.03 6157.04 4768.61 4522.21 5506.19 6719.94 4950.67 5832.37 6166.29 5453.6 5409.63 5294.77 4709.05 4630.82 4043.66 4813.08 5860.67 4540.86 3764.1 4835.83 5604.35 6316.56 4332.87 3091.67 6420.81 4715.58 4450.7 5151.52 5369.08 4347.74 5291.9 4009.62 2081.58 6505.78 5461.55 4270.15 6865.76 6449.64 6464.8 4684.44 4749.59 5799.69 5571.72 3809.69 3208.96 7051.9 4184.23 4144.57 5550.75 6834.41 6226.14 5466.33 3000.29 5721.05 4247.69 4209.31 4514.39 6242.79 4321.21 4344.34 3583.49 5052.84 4366.74 5297.16 3184.64 5206.33 5530.49 5653.03 3718.69 4514.79 2216.82 4509.89 4940.28 6752.75 5269.38 5607.3 2928.82 4222.4 4000.43 4568.41 3420.08 4912.04 4539.07 5464.68 2685.81 5591.76 4585.31 6625.18 5323.91 5097.45 6293.89 5737.75 2761.07 4983.39 5366.52 4690.55 5533.72 5533.42 3678.08 4599.38 5246.47 4187.31 6191.29 3240.51 7422.36 5161.01 4298.15 4628.4 6051.83 4642.93 3973.12 4263.16 3077.84 6024.75 6109.49 5567.93 5987.42 5332.65 4442.22 6451.33 5413.31 3012.99 6400.08 4743.59 5208.14 3317.83 3763.05 5092.24 5549.49 3101.75 5423.42 4518.04 4766.06 4874.18 5435.19 3298.2 7093.13 4953.1 5818.95 4093.99 3940.49 4406.05 4680.94 5828.35 5876.72 5236.43 5285.07 4680.14 4608.41 4187.94 5980.59 5021.77 3796.15 4801.8 7216.98 5271.02 5718.28 5950.45 5713.03 5849.65 5134.67 4165.21 4215.0 4936.96 4481.76 5452.78 5065.26 4304.41 6192.0 5885.28 6579.31 3004.34 5323.55 3022.6 4811.76 4914.45 4698.87 4661.03 3624.7 5262.35 4691.91 4475.83 4255.34 4510.8 5889.35 5010.04 4394.56 4570.98 4275.07 5825.38 4185.61 4047.87 5742.47 3778.02 4917.99 6552.21 5417.8 5146.37 7132.12 4836.16 5518.57 5151.11 5463.48 5730.33 5545.46 4527.99 4543.1 4376.7 5190.61 8325.01 3764.06 4440.81 5941.9 5434.47 6642.76 5829.22 4497.78 4243.79 5811.18 5433.65 4008.15 4887.76 4669.06 4811.32 4286.49 6184.88 5829.32 4396.25 5551.95 3918.87 2275.45 4901.2 6605.86 4383.56 5012.5 3562.79 4516.53 4122.92 3604.14 4452.54 5089.1 2711.19 4028.32 4099.92 4884.59 3858.06 4511.7 4083.79 5263.27 6300.92 4173.54 5599.29 6038.68 5046.12 4807.4 7013.17 3805.67 4601.74 6506.86 5088.57 5580.34 3852.6 5775.31 4706.5 4603.5 4647.67 5375.12 4356.36 4892.44 5578.94 7610.49 4286.17 3684.56 5375.1 4172.6 5313.12 5351.56 3984.88 5160.59 4732.09 4320.42 5064.79 5480.3 7509.24 4146.81 5896.26 5388.78 6101.13 4573.72 5099.21 5636.4 4367.78 4350.12 5227.02 5670.0 4232.16 5300.96 4344.51 5680.94 3781.77 5581.55 5193.01 3474.5 6550.44 3860.83 6348.03 5732.27 4523.39 5278.56 5146.37 6917.62 4013.38 5631.14 4343.78 5263.3 3352.35 4909.65 6523.86 7693.4 4326.48 4437.07 3449.37 5491.9 6405.0 4659.16 5789.55 4633.05 5711.62 4798.17 4990.79 5166.79 6479.39 2895.63 4997.91 5079.22 5381.54 5810.77 4714.83 5474.15 7519.2 6355.68 4478.6 3953.55 4304.63 4063.9 4469.54 4314.56 3928.53 5606.51 5740.65 3834.47 6349.67 6329.53 4590.01 6101.86 4227.41 5993.0 4803.57 5966.42 4110.59 3332.49 5354.66 4214.44 5378.23 4787.97 3746.36 6789.23 3989.7 4777.03 4246.61 6028.09 5452.36 3804.5 6486.37 5498.42 3344.57 5318.53 5220.76 4281.98 7165.9 5344.83 7046.11 3427.63 4863.97 6342.48 5756.75 4587.67 5599.7 4163.74 6969.28 3665.95 4296.69 5698.96 4095.75 3319.67 3603.51 4298.45 5222.51 4076.59 6609.84 5135.96 3834.43 5658.37 4707.06 6074.94 5491.37 4250.88 4222.77 3783.54 5268.38 3475.67 4792.39 7038.89 3863.67 4814.12 5067.56 6137.8 2735.53 5116.6 3747.03 2783.85 4356.49 4526.81 3994.07 4219.94 5907.46 6740.71 4264.91 5399.29 5971.22 4909.31 6522.59 6602.43 3568.28 5425.98 5996.66 4405.42 2995.67 3598.08 4599.81 5698.23 7300.58 3608.06 6633.61 5217.95 4867.7 5484.36 4277.24 5291.05 5161.1 4619.2 5166.41 5067.56 2596.96 5701.75 4350.15 4139.3 6541.45 4750.49 5078.31 5391.48 4923.43 5131.15 4847.14 3950.27 5116.66 3566.79 5374.67 4981.43 4741.28 4215.2 5069.89 4157.29 6813.72 5327.75 4609.02 4896.65 4638.18 4196.37 6448.66 4453.97 6945.98 5138.2 5783.48 4701.5 4449.98 4504.35 4771.65 4840.44 5093.82 5951.81 3924.14 6918.35 4834.3 6238.32 6804.79 6471.42 5283.8 5369.5 4428.14 5164.1 6464.15 4479.11 4972.17 6685.4 5699.53 4850.06 6332.01 5527.23 4234.18 4805.33 7085.01 5980.95 6193.08 6069.3 3862.77 5887.01 5168.35 5388.39 3728.18 5335.47 5633.61 5048.19 6799.23 4888.27 4592.15 6487.56 4854.11 5533.19 4998.22 5417.21 6104.26 5583.61 6063.64 4986.71 7382.3 4022.56 5522.21 3772.3 4855.01 6208.9 4923.57 3340.09 6061.63 2279.05 4829.35 4075.28 8137.11 5484.32 6650.77 4067.96 4824.12 7104.73 6162.3 3272.75 4264.54 3516.27 7043.44 4263.78 4643.9 5228.75 6047.14 5009.83 5210.38 5717.8 3629.44 5003.78 3299.24 6246.56 4061.6 2603.64 5107.0 6212.15 6502.97 4783.07 4946.23 4852.58 6083.28 5211.6 5806.31 3556.79 5456.71 3503.41 7317.04 6412.67 7001.83 5012.97 4036.91 5589.37 5439.49 6639.64 5212.43 5454.12 6348.54 4066.57 5642.35 6372.13 6357.47 5404.01 6016.19 4124.49 3230.13 5714.25 6176.67 5325.96 5412.24 5016.02 7044.29 4920.21 4049.16 5851.61 3936.95 6153.94 6836.82 3858.17 4631.99 4740.98 3185.39 5128.77 7122.87 5797.36 4243.26 4153.84 5119.86 5089.26 5084.17 4901.44 3776.8 5096.43 6156.21 2460.79 4653.83 6171.71 3628.89 6589.82 4668.88 5027.43 5522.75 5867.64 4438.58 6059.93 5602.53 5073.02 6545.43 3472.91 6760.92 4989.2 4711.04 7144.05 4506.18 2970.9 6542.5 4383.47 5971.21 6318.23 4206.98 5156.76 6101.57 4891.38 5535.91 4793.65 2949.12 5955.86 4533.37 4532.89 4848.46 2779.99 5887.38 4581.37 6942.34 3658.05 5478.11 5526.31 5030.15 4058.87 5174.75 