# vtk DataFile Version 2.0
Time step 13
ASCII
DATASET UNSTRUCTURED_GRID
POINTS 5000 float
16751.7 205205.0 0
27683.0 203579.0 0
57009.7 205809.0 0
171833.0 205090.0 0
177739.0 205125.0 0
182944.0 204315.0 0
252673.0 205818.0 0
278879.0 205237.0 0
297321.0 205208.0 0
361827.0 205620.0 0
372011.0 203680.0 0
377026.0 205660.0 0
388125.0 205778.0 0
394012.0 205104.0 0
403634.0 204076.0 0
408575.0 205275.0 0
422722.0 205089.0 0
432493.0 204583.0 0
446273.0 205420.0 0
471637.0 205651.0 0
477072.0 204464.0 0
485848.0 204350.0 0
497601.0 204394.0 0
2397.74 206647.0 0
8476.51 206030.0 0
6037.12 209373.0 0
12438.1 205855.0 0
11067.8 210367.0 0
22243.6 206791.0 0
28492.3 209935.0 0
33166.6 206257.0 0
38154.8 206832.0 0
42674.3 206950.0 0
47484.7 206888.0 0
48245.5 210892.0 0
52137.1 206957.0 0
62763.5 206872.0 0
67994.7 207005.0 0
72698.8 206154.0 0
77500.0 206885.0 0
82500.0 206874.0 0
87409.8 206182.0 0
92500.0 206912.0 0
97203.9 206934.0 0
101304.0 206849.0 0
105961.0 206269.0 0
111929.0 206739.0 0
108250.0 210864.0 0
117843.0 206904.0 0
123323.0 206981.0 0
128337.0 207101.0 0
133420.0 206352.0 0
138116.0 207034.0 0
142500.0 206956.0 0
147500.0 206889.0 0
152501.0 206859.0 0
157585.0 206499.0 0
156891.0 210554.0 0
162554.0 206656.0 0
167017.0 206220.0 0
166539.0 210894.0 0
172952.0 210663.0 0
178356.0 210540.0 0
183513.0 209386.0 0
187402.0 206162.0 0
188584.0 210615.0 0
192500.0 207307.0 0
196093.0 206484.0 0
198236.0 210842.0 0
201753.0 205838.0 0
207653.0 206594.0 0
212991.0 205958.0 0
213693.0 210509.0 0
218130.0 207016.0 0
222482.0 207027.0 0
225809.0 206311.0 0
226822.0 210545.0 0
230431.0 206163.0 0
235810.0 207137.0 0
241170.0 205842.0 0
246500.0 207849.0 0
259041.0 206315.0 0
263768.0 207379.0 0
268745.0 206321.0 0
273940.0 206612.0 0
271650.0 210509.0 0
277015.0 210914.0 0
282031.0 208567.0 0
286327.0 206876.0 0
291719.0 207339.0 0
298231.0 210722.0 0
303655.0 206031.0 0
307743.0 208589.0 0
312123.0 206411.0 0
317924.0 207046.0 0
323241.0 206959.0 0
327578.0 207201.0 0
332204.0 206802.0 0
337221.0 206512.0 0
341017.0 207725.0 0
345899.0 206075.0 0
343295.0 210757.0 0
350702.0 207966.0 0
355288.0 207016.0 0
365143.0 210689.0 0
367956.0 206997.0 0
372935.0 210477.0 0
382607.0 206509.0 0
378835.0 210201.0 0
388357.0 210867.0 0
399180.0 206809.0 0
402971.0 210272.0 0
412481.0 206908.0 0
408357.0 209554.0 0
412837.0 210853.0 0
417500.0 206918.0 0
422133.0 209727.0 0
427274.0 206746.0 0
433384.0 209826.0 0
437537.0 206895.0 0
442112.0 205863.0 0
443200.0 210155.0 0
447581.0 209428.0 0
450682.0 206208.0 0
451922.0 210697.0 0
455226.0 206187.0 0
460248.0 206071.0 0
465803.0 206389.0 0
481332.0 207300.0 0
486607.0 210571.0 0
491674.0 205902.0 0
496838.0 209903.0 0
2279.73 211724.0 0
6751.18 214412.0 0
17306.2 211108.0 0
22978.7 212353.0 0
34944.7 211526.0 0
40316.4 211857.0 0
44439.9 212187.0 0
47561.6 215613.0 0
52500.0 211917.0 0
57982.4 211253.0 0
62839.6 211971.0 0
67505.2 211643.0 0
72136.8 211277.0 0
77500.0 212043.0 0
82116.1 211689.0 0
87902.4 210941.0 0
92500.0 212052.0 0
97189.8 211720.0 0
102467.0 211585.0 0
107926.0 215642.0 0
112500.0 211988.0 0
117500.0 212070.0 0
122500.0 211993.0 0
125874.0 215914.0 0
127725.0 211541.0 0
132492.0 211886.0 0
137520.0 211901.0 0
142772.0 211381.0 0
141009.0 215510.0 0
146954.0 211730.0 0
151965.0 211608.0 0
156262.0 215113.0 0
161325.0 211380.0 0
170012.0 215470.0 0
182197.0 214532.0 0
193554.0 211457.0 0
203922.0 211459.0 0
199985.0 215938.0 0
209357.0 211687.0 0
213296.0 215319.0 0
217616.0 212081.0 0
222049.0 211889.0 0
226881.0 215548.0 0
232227.0 211565.0 0
237709.0 212380.0 0
243307.0 212253.0 0
248442.0 211931.0 0
246871.0 216018.0 0
252659.0 212391.0 0
257245.0 210950.0 0
257707.0 215703.0 0
262325.0 211557.0 0
267112.0 211178.0 0
267455.0 215639.0 0
273011.0 215769.0 0
279897.0 214921.0 0
282827.0 212254.0 0
287500.0 211966.0 0
292882.0 211839.0 0
296767.0 215780.0 0
303094.0 211699.0 0
307463.0 211882.0 0
312501.0 212161.0 0
317499.0 211924.0 0
322452.0 211431.0 0
322517.0 215436.0 0
327500.0 211946.0 0
332500.0 212019.0 0
337700.0 211379.0 0
341400.0 214961.0 0
346825.0 215592.0 0
347726.0 211205.0 0
352664.0 211865.0 0
356024.0 215291.0 0
361467.0 210933.0 0
357787.0 211434.0 0
361249.0 215633.0 0
366513.0 214778.0 0
382022.0 211331.0 0
384373.0 214668.0 0
393536.0 211239.0 0
397215.0 216017.0 0
398120.0 211664.0 0
409229.0 215196.0 0
417498.0 211422.0 0
428245.0 211705.0 0
424077.0 214562.0 0
432223.0 215452.0 0
437500.0 211960.0 0
442307.0 215384.0 0
448219.0 214501.0 0
457150.0 210931.0 0
462424.0 212337.0 0
466604.0 210958.0 0
470202.0 212121.0 0
472367.0 215451.0 0
475194.0 210940.0 0
480812.0 212573.0 0
492091.0 212820.0 0
2238.62 217556.0 0
8045.08 220254.0 0
11848.6 216242.0 0
13461.7 220861.0 0
16325.5 216318.0 0
17742.6 220162.0 0
20503.8 216331.0 0
22404.5 220709.0 0
27011.8 216765.0 0
32598.0 216612.0 0
32028.6 220896.0 0
38225.8 216364.0 0
42934.8 216706.0 0
49064.4 220395.0 0
51782.8 217353.0 0
56535.4 216871.0 0
62095.4 216877.0 0
67674.7 216488.0 0
73686.6 216827.0 0
78216.2 217240.0 0
81959.8 216415.0 0
86965.5 216458.0 0
92531.5 216803.0 0
97547.1 216240.0 0
102630.0 217347.0 0
112499.0 216903.0 0
116739.0 216684.0 0
120857.0 216523.0 0
123408.0 220509.0 0
131168.0 217610.0 0
136455.0 217549.0 0
146324.0 216620.0 0
151849.0 218228.0 0
156816.0 220548.0 0
161717.0 217071.0 0
166535.0 218904.0 0
176309.0 216309.0 0
182232.0 220009.0 0
188062.0 216779.0 0
194273.0 216479.0 0
203044.0 221089.0 0
208106.0 216573.0 0
204286.0 216948.0 0
217709.0 217020.0 0
214360.0 220987.0 0
222571.0 216164.0 0
222087.0 220428.0 0
227570.0 221089.0 0
232458.0 217030.0 0
237451.0 216806.0 0
237796.0 220142.0 0
241808.0 217455.0 0
251818.0 217292.0 0
255892.0 220437.0 0
262691.0 216339.0 0
260356.0 220103.0 0
266383.0 220336.0 0
278360.0 220418.0 0
283583.0 217189.0 0
287244.0 217273.0 0
288765.0 220437.0 0
291052.0 216173.0 0
302260.0 216941.0 0
307722.0 216311.0 0
313222.0 217452.0 0
318207.0 216466.0 0
321040.0 220742.0 0
326817.0 217322.0 0
329894.0 220906.0 0
336503.0 216044.0 0
331861.0 217084.0 0
339788.0 220358.0 0
351883.0 216712.0 0
357355.0 219244.0 0
366585.0 219468.0 0
371111.0 216618.0 0
377677.0 216131.0 0
382814.0 220178.0 0
392422.0 216065.0 0
388354.0 217859.0 0
402851.0 216509.0 0
408063.0 220574.0 0
414379.0 217781.0 0
419080.0 216126.0 0
427659.0 217570.0 0
437305.0 216248.0 0
437156.0 220445.0 0
441861.0 220978.0 0
446573.0 219533.0 0
450884.0 220124.0 0
454109.0 216116.0 0
458934.0 217109.0 0
463080.0 216889.0 0
467503.0 217054.0 0
472656.0 220404.0 0
477775.0 216448.0 0
482612.0 217275.0 0
487502.0 218342.0 0
491514.0 216880.0 0
492130.0 220744.0 0
496596.0 216498.0 0
2182.12 221970.0 0
11871.7 224590.0 0
17122.2 225333.0 0
23010.9 226092.0 0
26948.6 222709.0 0
30191.5 225437.0 0
34844.6 226215.0 0
37544.9 221564.0 0
39735.1 225614.0 0
43171.6 221769.0 0
48490.0 225608.0 0
53807.2 222038.0 0
59209.9 221545.0 0
57188.5 225931.0 0
63605.9 221204.0 0
63062.1 225980.0 0
68062.2 222160.0 0
72601.9 221704.0 0
73349.0 225770.0 0
77066.3 221182.0 0
82134.1 221435.0 0
87330.9 221632.0 0
92267.6 222125.0 0
97734.9 221591.0 0
102766.0 222856.0 0
107695.0 221139.0 0
111312.0 225829.0 0
113095.0 221236.0 0
118129.0 221165.0 0
122101.0 225703.0 0
127500.0 222067.0 0
126923.0 226213.0 0
132682.0 222444.0 0
137732.0 221468.0 0
136578.0 226020.0 0
142522.0 221630.0 0
147009.0 225513.0 0
147996.0 221235.0 0
153387.0 222897.0 0
160407.0 221879.0 0
164427.0 222602.0 0
167059.0 225462.0 0
170842.0 221499.0 0
177034.0 222877.0 0
186628.0 222408.0 0
191646.0 221911.0 0
193679.0 226000.0 0
197216.0 221217.0 0
203168.0 226190.0 0
208742.0 222917.0 0
218735.0 222220.0 0
216339.0 225596.0 0
221197.0 225865.0 0
234266.0 221443.0 0
231995.0 225981.0 0
237941.0 224876.0 0
241825.0 222054.0 0
246296.0 221208.0 0
251537.0 222554.0 0
257741.0 225618.0 0
262649.0 223681.0 0
271777.0 222046.0 0
284357.0 221932.0 0
288841.0 225756.0 0
292989.0 222152.0 0
298947.0 222089.0 0
303985.0 222287.0 0
307500.0 222110.0 0
312166.0 221929.0 0
316218.0 221197.0 0
317026.0 225614.0 0
325839.0 222250.0 0
334374.0 222859.0 0
341459.0 225829.0 0
346083.0 221848.0 0
352838.0 222287.0 0
361683.0 221624.0 0
357887.0 225794.0 0
367128.0 224373.0 0
371937.0 222236.0 0
377882.0 223565.0 0
387357.0 222037.0 0
383269.0 226202.0 0
388172.0 226218.0 0
393034.0 222680.0 0
399502.0 221671.0 0
404307.0 221657.0 0
403070.0 225645.0 0
412364.0 222265.0 0
408170.0 225423.0 0
416954.0 221555.0 0
414629.0 225882.0 0
421355.0 222841.0 0
425628.0 221193.0 0
427469.0 225670.0 0
431032.0 221641.0 0
436057.0 225403.0 0
448265.0 225078.0 0
455486.0 221854.0 0
461282.0 221614.0 0
467053.0 221391.0 0
473815.0 225644.0 0
478891.0 221943.0 0
484751.0 222413.0 0
489144.0 223141.0 0
496761.0 223138.0 0
1501.43 226705.0 0
2744.43 230751.0 0
7120.65 226552.0 0
12631.0 229095.0 0
18071.7 231094.0 0
28622.0 229482.0 0
39074.4 230447.0 0
43619.9 227512.0 0
53081.0 227982.0 0
59672.0 230953.0 0
68318.9 227335.0 0
72194.1 229657.0 0
76347.7 231274.0 0
78249.3 226347.0 0
83540.7 226378.0 0
88349.8 226458.0 0
92500.0 226975.0 0
97257.8 227006.0 0
101216.0 227030.0 0
105609.0 226658.0 0
111054.0 230677.0 0
116646.0 226428.0 0
115393.0 231143.0 0
131222.0 226828.0 0
133303.0 231281.0 0
142211.0 227323.0 0
151789.0 227469.0 0
157924.0 226436.0 0
161420.0 230912.0 0
163678.0 227089.0 0
166776.0 230810.0 0
171002.0 227503.0 0
176731.0 229165.0 0
182920.0 226899.0 0
189190.0 226822.0 0
198241.0 227106.0 0
202603.0 230741.0 0
207332.0 228292.0 0
212123.0 227154.0 0
226326.0 227701.0 0
236068.0 229879.0 0
242858.0 226677.0 0
248052.0 226306.0 0
252910.0 226584.0 0
250954.0 230750.0 0
262868.0 229258.0 0
267625.0 226258.0 0
272715.0 227926.0 0
278485.0 227071.0 0
283577.0 226519.0 0
282093.0 230450.0 0
293492.0 226749.0 0
293041.0 231151.0 0
297510.0 228129.0 0
302639.0 226592.0 0
301887.0 230515.0 0
307160.0 226951.0 0
311986.0 226664.0 0
316899.0 230736.0 0
322353.0 226314.0 0
331011.0 226430.0 0
327213.0 227115.0 0
[...]
POINT_DATA 5000
SCALARS Radius float 1
LOOKUP_TABLE default
5253.55 5782.6 5379.87 6044.04 5415.48 5120.0 7513.1 5580.89 6810.52 7613.27 5529.52 5255.32 5096.78 6756.95 6324.23 3843.58 4270.53 5191.63 4216.92 6268.1 4861.06 5320.28 4797.52 4796.58 3979.26 4298.67 3471.03 5960.66 5820.48 7034.11 4862.21 5113.21 3929.19 4107.03 4043.57 4478.15 5925.6 4501.51 4792.73 4736.58 4931.38 3485.26 4329.05 4151.94 4049.23 5337.48 6124.89 4929.8 5708.81 5252.48 4780.03 5495.39 3996.0 3856.1 4665.12 3383.4 4133.88 4094.62 4834.9 3850.77 5546.39 5325.36 5484.83 5085.53 3863.18 5351.6 2356.98 4998.37 4715.55 6182.6 5492.18 5258.36 3951.75 5061.3 3642.12 3163.97 5542.27 5812.43 5122.66 5906.14 5484.19 5254.28 4436.4 5733.48 4672.91 4182.53 5903.42 3588.44 5645.7 5176.86 4366.19 5840.26 3672.51 6110.27 5561.06 5073.35 3615.22 5670.04 4380.59 3589.27 6716.79 3997.1 3607.45 5759.91 4333.2 4951.03 7199.21 6037.08 4523.7 5091.39 4129.43 6142.94 3320.52 4727.24 4602.25 4194.5 5082.47 5344.25 5445.87 4593.7 4150.99 4704.72 4177.94 4742.68 4571.7 4344.58 5634.83 5495.84 5374.51 7042.12 6739.08 6326.39 4569.12 5873.69 6608.73 5011.84 6261.42 4502.5 3771.48 5499.11 4271.69 5681.38 4138.42 3708.04 5513.6 3240.09 4556.36 6082.81 3191.99 4685.34 5601.05 4651.28 3586.91 3103.0 3554.9 5481.78 4015.92 5542.21 4487.31 3936.02 5043.05 4044.71 5980.74 5109.54 4927.02 5945.65 5538.89 4730.36 5867.73 6059.59 5013.56 5701.86 4499.64 4375.68 4468.59 5054.98 6030.06 5170.02 3557.27 5200.76 4927.31 4688.68 4862.64 4402.52 4517.56 4432.58 6684.56 3968.64 3955.56 3761.32 4118.05 6166.5 5553.16 2938.66 4940.78 4231.61 4008.92 4003.05 3942.53 3379.84 4827.82 5227.21 5697.78 3260.67 5123.52 4091.31 3038.33 4392.68 6372.62 4295.38 2240.39 5923.5 5293.9 4973.83 3912.37 6691.39 4790.08 4763.45 5344.0 6045.46 3815.26 5908.1 6048.7 5896.46 5022.8 3784.5 3780.23 4166.08 6481.79 5224.12 4819.73 4471.58 6098.14 4962.09 4472.17 3999.48 4203.26 4359.62 5188.81 6946.21 2586.12 6057.22 5433.8 4011.77 4527.08 3633.87 5922.5 5198.77 5987.17 6013.14 2765.2 4901.41 5110.37 5664.98 4382.74 5927.43 4384.42 3693.63 4516.43 4948.92 5637.59 4937.14 5816.2 5693.81 4174.52 6483.19 3829.13 6759.9 5418.62 7021.47 5416.38 5926.61 4955.55 2720.68 3563.63 5836.15 4238.81 4345.55 6704.06 5885.03 2837.58 3871.88 5325.02 5017.13 5279.39 5185.34 3673.74 5205.43 7447.37 4688.67 2635.86 4385.06 5292.64 5065.13 5936.02 5305.17 4861.08 5399.73 5390.22 3888.21 4805.87 4712.33 6038.78 4667.36 4254.17 5090.24 5615.42 7565.34 5530.87 4612.68 4281.49 6342.25 4187.56 4840.84 5135.69 4020.32 4245.72 4156.38 5316.75 4541.21 4164.68 6133.92 3719.84 4178.4 3095.48 5762.59 4123.6 4850.14 5163.55 3382.7 3954.91 6817.32 4319.79 3637.61 6222.42 5654.31 4730.41 3745.84 5690.26 5062.71 4156.2 6125.34 5965.78 5347.48 4850.01 4810.12 3970.25 5643.58 5147.67 3979.82 4292.06 5011.31 5138.31 5264.06 4659.59 6327.9 4048.37 6355.42 5492.26 4362.19 5690.56 5762.84 3115.91 3937.74 4493.48 3307.12 6084.86 5924.89 4778.34 4002.16 4138.16 3486.22 4684.5 3091.3 6230.49 6458.82 4601.27 5493.32 3641.64 5740.68 4277.89 6051.14 3261.21 4195.44 5539.32 3653.41 6496.85 5600.93 3856.01 5246.2 4390.66 5728.85 4827.23 6116.18 4924.6 6257.19 4733.32 7184.19 2899.43 2924.37 3867.67 4290.3 4695.45 4660.72 5891.05 5308.1 6902.81 6644.76 5629.19 5655.21 4786.6 5740.84 6445.94 4310.18 5542.14 4218.06 7134.64 5978.9 3629.62 4716.19 4997.27 5514.76 4301.06 3456.98 4877.67 4290.14 3066.13 6562.18 6006.16 7055.53 5669.65 5934.22 5624.49 4970.88 7092.87 4666.81 3703.1 6471.55 2965.01 5499.39 6643.85 5501.93 5463.38 4938.74 5607.14 4497.59 4374.35 6396.74 5215.05 3821.72 4986.77 5577.04 5006.58 4602.86 3688.8 4548.16 3369.23 5449.18 4220.88 5244.78 4515.71 4749.8 5082.6 5478.92 5551.36 6894.71 4467.94 4414.54 4850.81 5789.98 6138.47 7054.71 5489.43 5747.75 4727.62 5054.25 4796.33 5360.19 4794.96 4874.39 5541.59 4124.71 5083.08 6337.56 4911.47 5803.39 5863.59 4381.97 4024.3 3255.82 5555.28 5242.73 2812.98 4737.14 4065.69 5603.15 5556.96 6052.7 3921.18 3798.62 6392.01 3666.57 4907.89 4937.02 4073.93 4645.41 4433.59 4320.28 6122.55 2739.94 4931.53 5480.13 6308.71 6695.82 6405.76 3498.2 5105.16 5448.61 4302.5 4827.33 6009.88 5513.57 5013.67 5826.04 5339.78 4538.95 4143.78 4763.66 4636.5 4940.42 5923.4 5085.71 5644.82 6343.14 5945.21 5750.71 5696.88 4831.47 3923.03 4643.85 5975.63 5252.34 4138.46 4274.61 2775.04 2965.79 6898.19 6318.18 5586.81 3948.17 4621.75 4551.24 4581.13 5358.59 3610.4 6387.01 5367.52 6519.71 6640.13 5210.03 5810.84 4230.54 5094.44 3748.24 4655.49 4933.21 5375.47 6038.14 2540.31 6029.66 5527.54 5573.7 5697.4 6038.2 4270.95 4055.8 5206.78 7325.81 5280.17 6425.26 5143.58 6186.19 4839.34 2980.99 6834.49 5525.39 3998.5 5938.34 5380.13 6394.38 5169.36 5932.23 4686.65 5834.74 5788.23 3043.85 5581.75 3599.45 6730.19 4907.06 3735.44 5163.9 6043.3 5952.75 6332.36 6155.31 4223.33 5911.67 3323.28 5835.78 5794.24 4127.74 2476.04 4678.38 3942.07 7443.72 5050.65 3937.08 5260.34 5206.48 5729.23 5226.0 3365.82 5724.64 5965.15 4780.2 6090.91 4946.42 5019.93 5081.78 6116.33 6263.44 5774.97 5462.21 5470.77 4004.04 6062.05 4289.17 5564.02 6072.45 4410.55 6035.6 5137.34 4481.53 5423.0 5330.45 3856.59 4219.07 5413.79 6202.55 3092.35 4322.15 4714.54 3629.96 5478.47 3320.11 5351.39 6142.37 6061.47 6163.38 4566.18 4723.12 5120.49 5201.36 5262.61 6302.8 5409.61 4005.44 5555.88 6732.43 5028.96 3866.16 6362.12 4484.76 4840.01 5152.36 4511.82 5611.2 7933.0 4455.12 5173.87 4894.16 5711.87 5118.27 3372.79 4941.22 5791.61 3369.13 4669.66 4479.66 4808.52 5367.2 5607.24 5461.13 4726.76 5839.13 5495.68 5489.34 5002.48 5708.14 5537.72 3920.42 8332.24 4553.56 5329.64 6049.55 5709.62 5991.09 5133.97 6600.94 5371.02 6155.1 4709.35 6586.45 4373.3 4750.78 5029.78 4163.5 4888.6 5078.86 5100.1 3561.29 4963.34 4219.78 3295.83 3885.86 4459.28 4260.92 6250.23 5960.56 4118.84 4020.95 6313.06 3474.39 3493.7 6470.3 4200.03 5082.74 6915.83 5092.37 6444.77 7099.43 5526.14 5198.29 5077.33 4746.52 3689.45 5572.95 6338.89 5584.06 5025.39 7111.16 5893.5 4547.19 5030.91 6022.17 5119.37 3982.23 4583.31 3459.9 4853.39 4997.27 4964.09 4809.42 5024.9 4306.53 5659.17 5094.81 5972.06 5713.22 4312.67 5861.71 4359.04 3183.98 3794.63 4524.28 3778.1 6175.81 4727.24 6677.09 5826.64 4220.65 6820.42 4816.2 6321.41 4896.52 4089.76 4751.02 3192.41 5184.56 5282.64 4715.72 5804.71 5046.33 4764.96 4242.52 5053.92 6352.26 3847.38 3818.59 4863.72 4143.08 7500.97 6623.85 4262.82 5102.36 4342.9 5065.11 5069.84 4051.44 4241.89 5054.74 5941.72 4656.78 5126.91 4788.58 5131.24 5196.67 5876.71 6262.72 6515.84 2990.77 4739.14 4918.77 4371.99 4188.3 5235.29 4479.94 4255.31 5453.3 6413.02 4863.27 5862.86 6049.79 5374.98 4719.7 6939.12 4735.33 5411.85 6314.07 4287.63 5315.4 6449.45 3975.31 3824.16 5125.78 3868.18 4373.47 6723.16 3686.21 3817.13 5507.24 5023.15 6851.54 4503.89 5806.08 5243.29 4093.08 4449.22 5543.27 4717.05 5287.2 6135.57 5998.38 5013.13 5423.8 4270.24 4989.15 5017.78 4164.13 5015.69 4947.52 4305.57 6959.81 4829.35 5201.67 3791.79 4424.7 4754.05 5526.55 6084.93 5215.15 4987.87 3315.57 4739.42 5020.12 5727.3 2631.9 5281.28 5356.51 4277.88 3057.03 4087.15 4758.21 7228.46 3948.23 5228.18 5978.82 5787.31 3927.99 5868.82 4050.9 4978.31 4948.98 4099.77 4414.48 4537.32 4981.9 3600.43 4906.82 5687.83 5004.23 6496.67 5474.8 6607.87 3664.11 5117.47 4925.63 3293.56 5882.65 4434.19 5187.7 4623.61 5511.6 6261.75 5177.64 6134.99 4094.73 4407.9 3492.19 4584.5 4440.57 5122.63 4703.08 2315.64 6345.13 5274.19 5516.95 4406.4 4413.85 4844.57 3999.94 4027.46 4470.98 4864.22 5776.37 4516.28 3921.08 4190.31 3627.82 4044.45 5262.19 5344.43 6070.58 5045.38 5350.88 5372.61 5402.24 6480.17 4377.07 3844.9 3813.22 5101.59 3963.86 5570.3 4336.42 4306.11 5935.47 7589.94 3130.65 5628.24 5856.11 3327.49 4109.88 4234.94 3960.8 4562.29 4980.85 5080.66 3417.33 5110.45 4926.42 5248.77 4642.34 4083.97 4520.1 5153.74 5874.89 4293.03 5813.4 4389.21 4128.98 4925.44 6246.22 4951.47 5246.61 4307.28 3697.96 4723.48 5538.93 4899.11 4745.45 7267.18 6255.18 4668.71 5269.18 6362.14 6719.88 4454.63 5266.5 4523.88 3279.1 4066.38 4403.98 4560.84 5227.52 4729.43 4092.24 5163.02 7144.24 5598.74 7493.3 6442.69 6320.71 4648.04 3464.83 6413.11 4721.32 4305.16 3163.78 5092.28 5274.14 4903.82 5746.28 4082.47 4453.64 4338.08 4517.73 4378.3 5469.47 4989.56 4718.54 6736.03 5548.29 6766.43 5916.16 4390.41 5226.56 5599.49 5313.22 4097.57 3905.51 5017.5 5563.79 6171.13 5759.46 3901.8 5083.41 5678.96 7055.42 4244.9 6048.86 4285.32 5490.43 6034.41 5452.83 5130.91 4948.5 4519.22 6445.22 3695.36 4564.34 4871.44 3848.93 5076.35 6020.48 3402.32 5903.66 4528.49 5004.67 5365.89 5419.37 5992.26 4466.03 4511.54 5070.39 4923.9 5714.58 5208.32 3296.27 4713.25 4607.02 4204.84 3895.51 4528.09 4165.81 3556.85 5441.96 6291.51 5174.89 5882.89 4188.32 5774.81 4100.38 3746.31 5344.77 5027.98 5097.87 4278.07 6475.1 4969.21 2691.29 6256.02 5320.92 4305.43 4406.1 5450.44 5034.59 4942.77 4263.33 5080.18 5912.61 5381.16 6193.35 6086.96 5233.78 5776.57 4562.74 5046.21 5683.26 5894.61 5139.5 5944.09 4814.55 3527.05 5698.77 2477.07 4497.31 5529.42 5257.12 4965.89 5659.95 4152.85 5551.9 2908.7 6415.61 4687.64 4419.71 5660.16 3838.47 2588.37 6235.57 3623.87 3087.09 6934.37 6113.95 4050.08 5328.22 5511.88 2395.5 4512.11 5486.68 5683.61 5100.25 5022.28 5197.52 4959.34 5383.07 4527.02 4531.14 4591.87 5013.42 3838.56 6552.22 5651.07 6248.81 6375.99 5200.05 5273.35 5234.29 5313.66 2651.49 5512.23 5275.32 5409.33 4898.94 5196.0 4613.31 4973.78 3329.99 3947.47 5091.68 7531.29 6243.0 5048.89 6673.96 3161.47 3991.03 3435.9 6390.78 7435.25 4288.3 5370.52 4788.87 4652.29 4495.87 6022.72 5498.32 5527.33 5346.27 4989.09 2845.98 4880.14 5289.52 5314.85 3848.54 5941.4 6510.17 5742.65 5592.32 4470.61 5565.13 3701.27 5653.9 4806.34 5612.21 4929.14 3979.54 5304.13 3306.14 5833.06 4863.79 4923.41 3830.46 6031.67 5384.76 6138.12 4428.78 5243.43 4537.14 4345.67 4765.72 3757.34 4642.66 4752.14 5329.59 4888.12 5037.06 4541.8 5512.16 5175.29 3197.63 5842.56 5887.15 5412.31 7480.41 3423.15 4890.5 3981.07 3731.84 5452.42 5186.3 6853.85 3497.9 4151.76 5941.61 4020.4 5782.48 3493.47 6248.6 3836.45 5443.58 4558.46 5805.86 6894.26 4470.4 4986.51 5339.38 5178.99 6169.11 5615.35 4790.78 6422.84 4247.15 4502.18 5379.09 4602.85 5872.05 4853.02 4091.8 4645.58 5181.4 5670.2 5985.29 4247.23 4178.15 4694.83 4733.04 5509.42 6119.09 4354.08 5788.66 5936.36 5069.25 3903.75 4755.47 5935.03 5475.8 5314.69 6826.57 4249.46 5965.81 3702.37 5660.85 4643.31 2330.66 4177.19 6917.52 5402.21 3587.05 6718.19 4982.31 4307.48 4425.84 5331.02 4871.96 4863.23 3555.86 4402.67 4631.83 4996.99 4384.88 6887.27 6008.49 4220.46 4287.53 5945.08 3169.67 4968.03 5490.58 5395.14 4702.06 3967.48 6213.04 4689.15 3685.13 4655.16 5409.66 3867.19 5857.79 4039.91 5276.7 6119.63 4950.97 4752.9 4287.16 4863.96 5191.08 5203.08 5374.07 5163.77 4588.7 4488.85 3766.55 4579.69 4901.07 3554.48 6496.52 3436.15 5005.85 4216.17 6484.17 4721.02 4596.75 4933.65 4031.78 6098.1 5708.99 4049.02 5346.68 5311.03 5255.12 4285.66 4896.11 4027.09 5172.53 5801.99 5210.48 4962.77 6259.23 5088.44 4998.21 4711.62 4114.24 4268.65 5349.31 4649.22 5094.52 4256.43 4946.74 2682.24 4520.62 5229.48 5475.7 4485.99 4016.18 5127.16 5435.74 4244.99 6050.81 5543.46 6185.89 3997.96 4750.17 3460.94 3990.25 3691.0 4752.51 6229.37 4236.14 4407.87 5282.91 3797.33 5945.89 7256.35 4105.55 4800.69 6566.1 6065.22 6386.78 4456.39 4896.39 3633.79 6081.14 5480.83 4607.85 6070.3 5128.57 6000.7 5604.21 5204.04 3361.92 4750.58 6710.88 5235.11 6622.11 4590.55 6790.73 5251.4 5097.69 3988.3 6543.13 5149.72 5036.58 5464.25 5411.02 5301.47 4617.55 5199.44 4062.5 4435.51 5683.95 6027.62 5010.2 5966.61 5711.11 4938.72 4254.37 3374.08 3546.71 5950.04 5687.85 5296.29 4611.53 2681.29 5094.48 3872.61 4238.4 4135.62 6132.95 5534.94 4860.33 7644.38 7552.94 6101.92 5323.3 4635.6 4256.67 4662.56 3457.48 5166.79 2976.22 3405.98 5417.15 5394.55 3688.16 4681.72 4945.39 5996.33 5928.32 3950.63 5415.19 4612.62 3619.07 5526.75 4275.57 6385.23 5327.45 2983.99 5560.26 2614.4 6363.92 6205.93 4439.35 5830.72 6184.4 3758.07 3828.81 4373.45 4082.57 5733.62 5169.9 5282.51 4460.92 3004.16 4042.28 4421.12 4340.76 5254.49 4221.28 4303.19 5514.84 3914.2 5421.53 5937.08 4135.08 5620.74 5233.29 4778.82 4312.56 4612.06 5053.95 5926.11 6667.68 5767.9 5211.38 5089.62 5869.4 4741.26 5920.32 4186.6 4255.85 4732.09 6136.49 4356.25 4216.95 5776.96 5742.74 5486.48 4947.24 3645.12 5424.88 6200.54 5415.85 5148.58 4199.45 8659.64 5469.13 4233.8 5765.42 6123.03 4997.83 4575.94 5325.44 5021.88 5956.65 5768.57 4498.25 5564.23 4188.87 3735.24 4231.83 2435.33 6401.43 4074.48 4558.47 5020.71 5997.88 5839.71 5576.92 4318.48 5266.22 3930.79 5226.97 3685.13 6004.68 3312.06 4051.34 3361.26 6799.4 3627.55 6239.84 5865.39 4427.28 3931.07 6079.11 6430.39 7440.72 3949.6 5703.6 6326.18 5661.62 6631.19 6648.68 4467.04 5626.61 5817.25 5061.98 6632.99 4537.6 4923.24 4419.61 7177.44 4563.46 5309.98 6553.94 5255.18 5460.65 4767.78 5463.41 5235.17 5225.33 4779.5 4929.75 4435.36 6649.96 5134.39 5784.3 4256.57 5442.32 6088.68 4643.56 4863.01 5657.36 6124.08 5467.84 5029.47 6306.21 5266.01 5253.37 6515.8 3685.65 3701.16 4916.22 6022.7 5895.77 5750.07 4809.67 4757.74 6045.67 4209.49 3821.94 4244.21 5367.73 3875.05 3540.11 3456.47 4652.01 7234.66 6599.66 4055.54 4976.12 6098.95 5453.98 4893.49 3991.42 4388.63 5102.75 4597.29 4200.09 5931.77 5151.21 6574.95 6333.29 4477.04 5731.57 5662.55 5737.92 6408.83 5365.24 4004.35 4763.96 5754.18 5180.76 3418.99 4480.95 5278.36 4409.63 5521.25 3661.9 3082.32 5370.85 5949.46 3658.37 3178.54 5376.71 4448.13 5070.29 4807.28 4867.08 4266.03 5280.69 4713.74 4220.03 6923.84 5407.78 4084.49 5449.46 6179.96 6113.54 5147.36 6260.79 3963.76 5528.53 6799.88 3062.43 5726.66 5426.78 5652.0 2967.38 4159.35 6477.91 4237.98 6439.37 6045.22 4614.3 3532.3 5580.92 5769.98 5973.33 5067.46 3583.21 2221.99 2511.46 3580.58 4011.37 2775.69 5356.79 4785.25 3619.79 5424.46 4857.84 2978.76 4908.49 2040.66 7016.27 5884.9 3876.21 4673.35 5689.26 4992.42 4940.84 4833.46 5933.7 7248.4 5280.12 3946.28 5984.81 5439.9 3498.16 4409.27 4640.06 5471.74 5421.64 3548.39 4858.51 4207.54 4886.12 6419.12 6107.89 4817.16 5148.08 4834.87 5760.22 5938.17 4795.43 5398.64 5097.95 6817.57 3614.96 3886.68 6853.04 5703.74 4745.43 4747.55 3056.7 3755.95 4360.23 6234.32 5293.51 4446.06 3450.93 5008.63 5132.68 6595.03 4993.35 6218.95 5222.16 5107.23 5136.08 5558.68 3776.94 4765.02 4010.57 5629.39 2684.03 6157.04 4768.61 2261.36 5075.55 5506.19 6719.94 4950.67 5227.59 6166.29 5453.6 5703.07 5294.77 4662.43 4709.05 4630.82 4043.66 4813.08 4540.86 5990.52 4835.83 5604.35 6316.56 3091.67 4332.87 6420.81 4081.97 5401.99 5151.52 4347.74 5291.9 4009.62 2081.58 6505.78 5461.55 6519.43 5876.64 4962.21 4684.44 4749.59 4858.44 3468.42 3809.69 5571.72 4771.13 5297.19 4184.23 4351.38 5550.75 5466.33 4444.97 5721.05 4247.69 4514.39 4588.99 4321.21 4344.34 3673.28 4928.27 3583.49 5052.84 3375.28 4366.74 5625.65 4301.61 3184.64 4446.84 5660.55 3718.69 4514.79 3672.21 2216.82 4509.89 6752.75 5269.38 5607.3 5108.06 3573.73 4693.52 4222.4 4000.43 3420.08 4912.04 5831.96 4539.07 5464.68 5591.76 4586.19 4585.31 6625.18 5323.91 4270.74 6293.89 4558.15 2761.07 4983.39 5366.52 4690.55 5533.72 5533.42 4802.32 3678.08 4599.38 5246.47 4187.31 6191.29 4522.21 7422.36 5161.01 4298.15 4628.4 5832.37 4642.93 5409.63 4263.16 3077.84 6024.75 6109.49 5567.93 5860.67 5332.65 3764.1 6451.33 5413.31 6400.08 4743.59 5208.14 4715.58 3317.83 4450.7 3763.05 5092.24 5369.08 3101.75 4518.04 4766.06 4874.18 5435.19 3298.2 4270.15 6865.76 6449.64 6464.8 4406.05 4680.94 5799.69 5236.43 3208.96 5285.07 7051.9 4608.41 4144.57 5980.59 6834.41 6226.14 3796.15 3000.29 5271.02 4209.31 5718.28 6242.79 5950.45 5713.03 5849.65 5134.67 4165.21 5297.16 4936.96 5206.33 5530.49 5653.03 4304.41 6192.0 4940.28 5885.28 3004.34 3022.6 2928.82 4811.76 4914.45 4698.87 4568.41 4661.03 3624.7 4691.91 5262.35 4475.83 2685.81 4510.8 5889.35 5010.04 4394.56 4570.98 5097.45 4275.07 5825.38 4185.61 5737.75 4047.87 5742.47 3778.02 6552.21 5417.8 5146.37 7132.12 4836.16 5518.57 5463.48 5730.33 3240.51 5545.46 4527.99 4376.7 5190.61 8325.01 6051.83 4440.81 5941.9 3973.12 5434.47 6642.76 4497.78 4243.79 5987.42 5433.65 4442.22 4887.76 4669.06 3012.99 4811.32 6184.88 5829.32 4396.25 5551.95 5549.49 3918.87 5423.42 2275.45 6605.86 5012.5 4383.56 3562.79 7093.13 4953.1 5818.95 4093.99 3604.14 3940.49 4452.54 5089.1 2711.19 5828.35 5876.72 4028.32 4099.92 4884.59 3858.06 4680.14 4083.79 4187.94 5263.27 6300.92 5021.77 5599.29 4801.8 7216.98 4807.4 7013.17 3805.67 4601.74 6506.86 5088.57 5580.34 3852.6 5775.31 4215.0 4603.5 4481.76 4647.67 5452.78 5065.26 4356.36 4892.44 5578.94 7610.49 4286.17 6579.31 5323.55 5375.1 5313.12 5351.56 5160.59 3984.88 4732.09 4320.42 4255.34 5064.79 5480.3 7509.24 4146.81 5896.26 5388.78 4573.72 5099.21 4917.99 5636.4 4367.78 4350.12 5227.02 5670.0 4232.16 5300.96 5151.11 4344.51 5680.94 3781.77 5581.55 5193.01 4543.1 6550.44 3860.83 3764.06 5732.27 4523.39 5278.56 6917.62 5829.22 4013.38 5631.14 4343.78 5811.18 4909.65 4008.15 7693.4 4286.49 4326.48 4437.07 3449.37 5491.9 6405.0 4659.16 5789.55 4633.05 4901.2 5711.62 4990.79 5166.79 6479.39 2895.63 4516.53 4122.92 5079.22 5381.54 5810.77 5474.15 7519.2 6355.68 4511.7 4478.6 3953.55 4304.63 4469.54 4314.56 4173.54 3928.53 6038.68 5046.12 3834.47 4590.01 6101.86 5993.0 4803.57 5966.42 4110.59 4706.5 3332.49 5354.66 4214.44 5375.12 4787.97 3746.36 4777.03 3684.56 4246.61 6028.09 5452.36 4172.6 3804.5 6486.37 5498.42 5318.53 3344.57 4281.98 7165.9 5344.83 3427.63 4863.97 6342.48 5756.75 6101.13 5599.7 6969.28 3665.95 5698.96 4095.75 3603.51 4298.45 5222.51 6609.84 5135.96 3834.43 5658.37 4707.06 6074.94 3474.5 5491.37 4250.88 3783.54 6348.03 3475.67 4792.39 7038.89 5146.37 5067.56 6137.8 2735.53 5263.3 3352.35 3747.03 6523.86 2783.85 4356.49 3994.07 4219.94 5907.46 4264.91 5399.29 4909.31 6522.59 4798.17 3568.28 5425.98 5996.66 4405.42 4997.91 2995.67 3598.08 4599.81 5698.23 7300.58 4714.83 3608.06 6633.61 5484.36 4277.24 4063.9 5291.05 5161.1 4619.2 5606.51 5166.41 5740.65 5067.56 6349.67 6329.53 6541.45 4227.41 4750.49 5078.31 5391.48 4923.43 5131.15 4847.14 3950.27 5116.66 5378.23 3566.79 5374.67 4981.43 6789.23 3989.7 4215.2 5069.89 4157.29 6813.72 5327.75 4609.02 4638.18 4196.37 6448.66 5220.76 6945.98 5138.2 7046.11 5783.48 4449.98 4504.35 4840.44 5093.82 4587.67 5951.81 4163.74 3924.14 4296.69 6238.32 3319.67 6471.42 5283.8 4076.59 4428.14 5164.1 6464.15 4972.17 6685.4 5699.53 4222.77 6332.01 5268.38 5527.23 4805.33 3863.67 5980.95 4814.12 6193.08 6069.3 5887.01 5116.6 5388.39 5335.47 4526.81 5048.19 6799.23 4888.27 6740.71 6487.56 4854.11 5971.22 5533.19 5417.21 6602.43 5583.61 6063.64 7382.3 5522.21 3772.3 4855.01 4923.57 3340.09 5217.95 4867.7 2279.05 4829.35 4075.28 8137.11 5484.32 6650.77 4067.96 7104.73 2596.96 5701.75 4350.15 4139.3 3516.27 4263.78 4643.9 5228.75 6047.14 5009.83 5210.38 5717.8 3629.44 5003.78 3299.24 6246.56 4741.28 4061.6 2603.64 5107.0 6212.15 4783.07 4896.65 4946.23 6083.28 5211.6 4453.97 3556.79 3503.41 4701.5 7001.83 4771.65 5012.97 5589.37 5439.49 6918.35 4834.3 6804.79 6372.13 5369.5 5404.01 6016.19 4124.49 4479.11 3230.13 5714.25 5325.96 4850.06 7044.29 4234.18 4049.16 7085.01 3936.95 6153.94 6836.82 3862.77 4631.99 5168.35 3185.39 5128.77 3728.18 5633.61 7122.87 5797.36 4243.26 4153.84 5119.86 4592.15 5084.17 4901.44 4998.22 5096.43 6156.21 6104.26 6171.71 4986.71 4668.88 4022.56 5027.43 5522.75 5867.64 6208.9 6059.93 5602.53 6061.63 6545.43 6760.92 4711.04 4506.18 4824.12 6162.3 3272.75 5971.21 4264.54 7043.44 6502.97 4852.58 5806.31 5456.71 7317.04 6412.67 4036.91 6639.64 5212.43 5454.12 6348.54 4066.57 5642.35 5156.76 6357.47 6101.57 4891.38 5535.91 5955.86 6176.67 4848.46 5412.24 5016.02 2779.99 4581.37 4920.21 6942.34 5851.61 5478.11 5526.31 3858.17 5030.15 4740.98 5089.26 3776.8 2460.79 4653.83 3628.89 6589.82 4438.58 5073.02 3472.91 4989.2 7144.05 2970.9 6542.5 4383.47 6318.23 4206.98 4058.87 5174.75 5932.07 4984.46 5948.71 4793.65 2949.12 3856.53 