# vtk DataFile Version 2.0
Time step 28
ASCII
DATASET UNSTRUCTURED_GRID
POINTS 5000 float
27670.8 150741.0 0
372011.0 150837.0 0
403648.0 151226.0 0
2398.26 153829.0 0
8527.06 153205.0 0
12438.8 153038.0 0
16747.5 152356.0 0
22243.6 154000.0 0
33199.4 153428.0 0
38181.6 154011.0 0
42700.3 154160.0 0
47473.8 154070.0 0
52137.1 154166.0 0
57005.3 153006.0 0
62763.5 154081.0 0
67994.7 154215.0 0
72702.1 153349.0 0
77500.0 154094.0 0
82500.0 154083.0 0
87407.8 153382.0 0
92500.0 154122.0 0
97193.5 154143.0 0
101293.0 154060.0 0
105947.0 153452.0 0
111936.0 153931.0 0
117850.0 154114.0 0
123330.0 154191.0 0
128345.0 154311.0 0
133427.0 153560.0 0
138123.0 154244.0 0
142500.0 154165.0 0
147500.0 154098.0 0
152501.0 154068.0 0
157589.0 153697.0 0
162560.0 153853.0 0
167011.0 153396.0 0
171831.0 152279.0 0
177734.0 152317.0 0
182939.0 151502.0 0
187394.0 153356.0 0
192499.0 154517.0 0
196081.0 153681.0 0
201748.0 153040.0 0
207651.0 153804.0 0
212985.0 153142.0 0
218128.0 154225.0 0
222480.0 154237.0 0
225796.0 153472.0 0
230434.0 153342.0 0
235810.0 154337.0 0
241170.0 153042.0 0
246501.0 155044.0 0
252679.0 153026.0 0
259051.0 153503.0 0
263773.0 154589.0 0
268741.0 153502.0 0
273935.0 153797.0 0
278881.0 152445.0 0
282030.0 155777.0 0
286326.0 154085.0 0
291718.0 154542.0 0
297319.0 152410.0 0
303663.0 153199.0 0
307732.0 155768.0 0
312126.0 153619.0 0
317928.0 154244.0 0
323244.0 154144.0 0
327580.0 154412.0 0
332205.0 154011.0 0
337222.0 153720.0 0
341019.0 154931.0 0
345896.0 153268.0 0
350688.0 155187.0 0
355262.0 154178.0 0
361816.0 152813.0 0
367954.0 154152.0 0
377030.0 152809.0 0
382609.0 153680.0 0
388131.0 152978.0 0
394018.0 152295.0 0
399198.0 153967.0 0
408586.0 152436.0 0
412475.0 154085.0 0
417500.0 154127.0 0
422737.0 152241.0 0
427272.0 153951.0 0
432480.0 151755.0 0
437537.0 154105.0 0
442090.0 153047.0 0
446253.0 152626.0 0
450666.0 153396.0 0
455209.0 153340.0 0
460242.0 153187.0 0
465794.0 153569.0 0
471629.0 152827.0 0
477063.0 151630.0 0
481305.0 154492.0 0
485844.0 151559.0 0
491674.0 153099.0 0
497601.0 151592.0 0
2284.1 158853.0 0
6058.8 156527.0 0
11084.4 157555.0 0
17329.4 158259.0 0
23001.7 159517.0 0
28515.4 157094.0 0
34965.5 158702.0 0
40338.0 159021.0 0
44460.7 159363.0 0
48275.8 158065.0 0
52500.0 159126.0 0
57994.3 158448.0 0
62849.2 159181.0 0
67505.2 158853.0 0
72118.1 158469.0 0
77500.0 159252.0 0
82116.1 158898.0 0
87907.6 158140.0 0
92500.0 159261.0 0
97184.1 158894.0 0
102467.0 158795.0 0
108243.0 158044.0 0
112500.0 159198.0 0
117500.0 159279.0 0
122500.0 159202.0 0
127727.0 158745.0 0
132493.0 159095.0 0
137520.0 159110.0 0
142774.0 158588.0 0
146929.0 158936.0 0
151940.0 158814.0 0
156863.0 157747.0 0
161299.0 158568.0 0
166512.0 158068.0 0
172971.0 157848.0 0
178375.0 157729.0 0
183532.0 156570.0 0
188603.0 157802.0 0
193570.0 158661.0 0
198250.0 158026.0 0
203920.0 158661.0 0
213693.0 157692.0 0
209356.0 158876.0 0
217602.0 159295.0 0
222034.0 159066.0 0
226803.0 157707.0 0
232207.0 158765.0 0
237688.0 159588.0 0
243286.0 159418.0 0
248460.0 159119.0 0
252676.0 159588.0 0
257261.0 158141.0 0
262325.0 158766.0 0
267067.0 158347.0 0
271616.0 157655.0 0
277066.0 158059.0 0
282828.0 159464.0 0
287500.0 159176.0 0
292909.0 159034.0 0
298248.0 157921.0 0
303116.0 158869.0 0
307444.0 159061.0 0
312501.0 159370.0 0
317484.0 159120.0 0
322435.0 158612.0 0
327500.0 159156.0 0
332500.0 159228.0 0
337712.0 158564.0 0
343306.0 157957.0 0
347749.0 158359.0 0
352668.0 159078.0 0
361444.0 158126.0 0
357758.0 158598.0 0
365117.0 157827.0 0
372929.0 157638.0 0
378821.0 157359.0 0
382005.0 158497.0 0
388373.0 158066.0 0
393552.0 158441.0 0
402996.0 157425.0 0
398134.0 158874.0 0
408384.0 156716.0 0
412861.0 158027.0 0
417517.0 158642.0 0
422127.0 156877.0 0
428322.0 158894.0 0
433425.0 156990.0 0
437509.0 159172.0 0
443214.0 157330.0 0
447601.0 156636.0 0
451943.0 157874.0 0
457174.0 158068.0 0
462428.0 159550.0 0
466600.0 158139.0 0
470193.0 159319.0 0
475182.0 158119.0 0
480798.0 159767.0 0
486590.0 157750.0 0
492077.0 160000.0 0
496837.0 157101.0 0
2238.62 164765.0 0
6740.83 161573.0 0
11844.5 163391.0 0
16324.3 163467.0 0
20503.5 163481.0 0
27039.7 163926.0 0
32613.9 163761.0 0
38259.3 163533.0 0
42966.4 163916.0 0
47585.6 162787.0 0
51798.2 164549.0 0
56552.0 164068.0 0
62112.5 164044.0 0
67694.6 163696.0 0
73696.6 164012.0 0
78211.4 164450.0 0
81954.8 163624.0 0
86960.6 163656.0 0
92531.5 164012.0 0
97548.2 163413.0 0
102630.0 164557.0 0
107924.0 162823.0 0
116732.0 163883.0 0
112494.0 164097.0 0
120857.0 163732.0 0
125865.0 163114.0 0
131159.0 164812.0 0
136446.0 164763.0 0
140994.0 162710.0 0
146307.0 163827.0 0
151836.0 165426.0 0
156246.0 162307.0 0
161704.0 164259.0 0
166529.0 166078.0 0
169998.0 162635.0 0
176294.0 163487.0 0
182187.0 161710.0 0
188049.0 163964.0 0
194262.0 163687.0 0
199973.0 163131.0 0
208111.0 163782.0 0
204288.0 164127.0 0
213299.0 162503.0 0
217709.0 164230.0 0
222564.0 163340.0 0
226872.0 162712.0 0
232446.0 164229.0 0
237424.0 164014.0 0
241793.0 164667.0 0
246845.0 163189.0 0
251788.0 164480.0 0
257734.0 162893.0 0
262716.0 163544.0 0
267485.0 162802.0 0
273042.0 162898.0 0
279880.0 162114.0 0
283558.0 164398.0 0
287219.0 164468.0 0
291021.0 163344.0 0
296738.0 162966.0 0
302237.0 164105.0 0
307703.0 163491.0 0
313209.0 164615.0 0
318192.0 163610.0 0
322511.0 162617.0 0
326813.0 164502.0 0
336510.0 163229.0 0
331857.0 164223.0 0
341412.0 162162.0 0
346843.0 162746.0 0
351892.0 163914.0 0
356026.0 162470.0 0
361259.0 162828.0 0
357350.0 166427.0 0
366513.0 161909.0 0
366555.0 166602.0 0
371102.0 163779.0 0
377674.0 163293.0 0
384356.0 161834.0 0
392423.0 163264.0 0
388339.0 165024.0 0
397216.0 163222.0 0
402856.0 163666.0 0
409241.0 162361.0 0
414409.0 164917.0 0
419139.0 163332.0 0
424116.0 161696.0 0
427681.0 164732.0 0
432246.0 162613.0 0
437337.0 163358.0 0
442352.0 162566.0 0
448268.0 161707.0 0
454170.0 163280.0 0
458985.0 164324.0 0
463177.0 164089.0 0
467517.0 164206.0 0
472372.0 162641.0 0
477750.0 163596.0 0
482620.0 164463.0 0
487505.0 165560.0 0
491507.0 164062.0 0
496592.0 163671.0 0
2182.12 169179.0 0
8050.29 167414.0 0
13471.2 168015.0 0
17751.5 167312.0 0
22415.9 167855.0 0
26984.6 169852.0 0
32067.6 168048.0 0
37584.4 168737.0 0
43200.3 168979.0 0
49063.2 167577.0 0
53807.2 169247.0 0
59221.5 168746.0 0
63616.0 168375.0 0
68064.9 169370.0 0
72603.0 168887.0 0
77068.9 168372.0 0
82136.3 168645.0 0
87334.1 168830.0 0
92269.4 169341.0 0
97732.8 168765.0 0
102768.0 170016.0 0
107686.0 168322.0 0
113111.0 168427.0 0
118137.0 168360.0 0
123418.0 167720.0 0
127500.0 169276.0 0
137738.0 168678.0 0
132690.0 169640.0 0
142523.0 168829.0 0
148001.0 168436.0 0
156827.0 167707.0 0
153416.0 170081.0 0
160406.0 169071.0 0
164429.0 169781.0 0
170842.0 168664.0 0
177033.0 170055.0 0
182233.0 167188.0 0
186625.0 169598.0 0
191647.0 169088.0 0
197223.0 168415.0 0
203054.0 168271.0 0
208747.0 170129.0 0
214360.0 168174.0 0
218719.0 169473.0 0
222027.0 167598.0 0
227512.0 168261.0 0
234326.0 168612.0 0
237866.0 167339.0 0
241755.0 169270.0 0
246217.0 168375.0 0
251520.0 169739.0 0
255875.0 167611.0 0
260339.0 167282.0 0
262639.0 170856.0 0
266355.0 167487.0 0
271760.0 169168.0 0
278362.0 167617.0 0
284358.0 169137.0 0
288759.0 167622.0 0
292983.0 169338.0 0
298942.0 169267.0 0
303985.0 169496.0 0
307500.0 169320.0 0
316249.0 168327.0 0
312166.0 169139.0 0
321072.0 167856.0 0
325848.0 169433.0 0
329891.0 168048.0 0
334357.0 170038.0 0
339780.0 167554.0 0
346087.0 169001.0 0
352843.0 169490.0 0
361675.0 168817.0 0
367107.0 171509.0 0
371934.0 169411.0 0
377880.0 170743.0 0
382814.0 167350.0 0
387369.0 169208.0 0
393045.0 169930.0 0
399509.0 168837.0 0
408060.0 167712.0 0
404318.0 168860.0 0
412351.0 169384.0 0
416951.0 168716.0 0
421364.0 169976.0 0
425652.0 168358.0 0
431059.0 168804.0 0
437118.0 167553.0 0
441816.0 168152.0 0
446529.0 166708.0 0
450852.0 167217.0 0
455415.0 169048.0 0
461209.0 168746.0 0
466984.0 168533.0 0
472600.0 167600.0 0
478851.0 169095.0 0
484709.0 169602.0 0
489147.0 170328.0 0
492123.0 167919.0 0
496754.0 170313.0 0
1482.49 173864.0 0
7149.42 173720.0 0
11898.6 171752.0 0
12666.5 176257.0 0
17158.0 172490.0 0
23048.8 173239.0 0
30221.2 172588.0 0
28646.1 176635.0 0
34872.2 173381.0 0
39761.0 172800.0 0
43676.8 174641.0 0
48573.9 172800.0 0
53130.2 175243.0 0
57211.0 173138.0 0
63068.6 173151.0 0
68315.5 174546.0 0
73397.2 172946.0 0
78298.0 173521.0 0
83589.4 173586.0 0
88393.7 173648.0 0
92504.6 174185.0 0
97237.5 174181.0 0
101196.0 174242.0 0
105586.0 173838.0 0
111305.0 173011.0 0
116639.0 173618.0 0
122097.0 172910.0 0
126929.0 173327.0 0
131217.0 174021.0 0
136576.0 173228.0 0
142211.0 174522.0 0
147010.0 172713.0 0
151799.0 174648.0 0
157939.0 173638.0 0
167049.0 172653.0 0
163661.0 174266.0 0
171004.0 174672.0 0
176729.0 176346.0 0
182933.0 174106.0 0
193693.0 173173.0 0
189204.0 174006.0 0
198249.0 174303.0 0
203174.0 173372.0 0
207323.0 175508.0 0
212116.0 174379.0 0
216322.0 172790.0 0
221178.0 173122.0 0
226330.0 174897.0 0
231984.0 173115.0 0
237943.0 172075.0 0
242845.0 173920.0 0
248032.0 173454.0 0
252900.0 173767.0 0
257729.0 172793.0 0
262835.0 176435.0 0
267593.0 173435.0 0
272700.0 175053.0 0
278481.0 174271.0 0
283574.0 173724.0 0
288836.0 172943.0 0
293487.0 173935.0 0
297507.0 175312.0 0
302639.0 173801.0 0
307120.0 174161.0 0
311946.0 173879.0 0
316972.0 172761.0 0
322302.0 173448.0 0
330945.0 173563.0 0
327157.0 174302.0 0
341514.0 173045.0 0
337117.0 173939.0 0
346672.0 174961.0 0
351591.0 175144.0 0
357891.0 173002.0 0
362980.0 173791.0 0
370174.0 174950.0 0
374550.0 174972.0 0
383269.0 173367.0 0
388203.0 173390.0 0
392171.0 176177.0 0
397895.0 174772.0 0
403057.0 172837.0 0
408164.0 172562.0 0
414679.0 173029.0 0
417926.0 174275.0 0
422493.0 174838.0 0
427476.0 172815.0 0
431250.0 174233.0 0
436116.0 172535.0 0
441986.0 173813.0 0
448321.0 172223.0 0
454021.0 174205.0 0
459438.0 174353.0 0
464974.0 173633.0 0
473881.0 172818.0 0
469639.0 174484.0 0
477659.0 175886.0 0
481987.0 174050.0 0
[...]
POINT_DATA 5000
SCALARS Radius float 1
LOOKUP_TABLE default
5782.6 5529.52 6324.23 4796.58 3979.26 3471.03 5253.55 5820.48 4862.21 5113.21 3929.19 4107.03 4478.15 5379.87 5925.6 4501.51 4792.73 4736.58 4931.38 3485.26 4329.05 4151.94 4049.23 5337.48 6124.89 5708.81 5252.48 4780.03 5495.39 3996.0 3856.1 4665.12 3383.4 4133.88 4834.9 3850.77 6044.04 5415.48 5120.0 3863.18 2356.98 4998.37 6182.6 5492.18 5258.36 5061.3 3642.12 3163.97 5812.43 5122.66 5906.14 5484.19 7513.1 5254.28 4436.4 5733.48 4672.91 5580.89 3588.44 5645.7 5176.86 6810.52 5840.26 3672.51 6110.27 5561.06 5073.35 3615.22 5670.04 4380.59 3589.27 6716.79 3607.45 5759.91 7613.27 4951.03 5255.32 6037.08 5096.78 6756.95 4129.43 3843.58 3320.52 4194.5 4270.53 5344.25 5191.63 4593.7 4150.99 4216.92 4742.68 4344.58 5634.83 5495.84 6268.1 4861.06 5374.51 5320.28 6739.08 4797.52 4569.12 4298.67 5960.66 6608.73 5011.84 7034.11 6261.42 4502.5 3771.48 4043.57 4271.69 5681.38 4138.42 3708.04 5513.6 3240.09 4556.36 6082.81 3191.99 4685.34 5601.05 4929.8 3586.91 3103.0 3554.9 4015.92 5542.21 4487.31 3936.02 4044.71 5980.74 4094.62 4927.02 5546.39 5325.36 5484.83 5085.53 5351.6 4730.36 4715.55 5867.73 3951.75 5013.56 4499.64 4375.68 5542.27 5054.98 6030.06 5170.02 3557.27 4927.31 4688.68 4402.52 4517.56 4182.53 5903.42 3955.56 3761.32 4118.05 4366.19 5553.16 2938.66 4940.78 4231.61 4008.92 3942.53 3379.84 4827.82 3997.1 3260.67 5123.52 3038.33 4392.68 4333.2 7199.21 4523.7 2240.39 5091.39 5293.9 6142.94 3912.37 4727.24 4602.25 4790.08 5082.47 4763.45 5445.87 3815.26 4704.72 4177.94 4571.7 5896.46 5022.8 3784.5 3780.23 6481.79 5224.12 7042.12 4819.73 6326.39 4471.58 5873.69 4962.09 3999.48 4359.62 6946.21 2586.12 5433.8 4011.77 5499.11 3633.87 5922.5 5198.77 5987.17 6013.14 2765.2 4901.41 5110.37 5664.98 4382.74 5927.43 4651.28 3693.63 4384.42 4516.43 5481.78 5637.59 4937.14 5043.05 5816.2 5693.81 5109.54 6483.19 3829.13 5945.65 6759.9 5538.89 7021.47 5416.38 6059.59 4955.55 2720.68 5701.86 3563.63 4238.81 4468.59 5885.03 2837.58 5325.02 5200.76 5017.13 4862.64 5185.34 4432.58 6684.56 3968.64 4688.67 2635.86 5292.64 6166.5 5065.13 5936.02 5305.17 4861.08 4003.05 5390.22 4805.87 4712.33 5227.21 5697.78 4667.36 4091.31 6372.62 4254.17 4295.38 5090.24 5615.42 7565.34 5923.5 4612.68 4281.49 4973.83 6342.25 6691.39 4840.84 5135.69 5344.0 4020.32 6045.46 4245.72 5908.1 6048.7 6133.92 3719.84 4178.4 3095.48 4166.08 4123.6 4850.14 5163.55 3382.7 6817.32 4319.79 6098.14 4472.17 4203.26 5188.81 4730.41 6057.22 5062.71 6125.34 4527.08 5347.48 4850.01 3970.25 5147.67 3979.82 5011.31 5138.31 5264.06 4659.59 6327.9 4048.37 6355.42 4362.19 5690.56 4948.92 3115.91 3307.12 4493.48 5924.89 4002.16 4174.52 4138.16 3486.22 4684.5 6230.49 6458.82 5418.62 4601.27 5493.32 5740.68 5926.61 6051.14 5836.15 3261.21 4345.55 6704.06 3653.41 3871.88 3856.01 5246.2 4390.66 5279.39 3673.74 4827.23 5205.43 6116.18 7447.37 4924.6 4385.06 4733.32 7184.19 2899.43 2924.37 4290.3 3867.67 5399.73 4660.72 3888.21 5891.05 6038.78 6902.81 6644.76 5629.19 4786.6 5740.84 6445.94 5530.87 4310.18 7134.64 5978.9 4187.56 3629.62 4997.27 4301.06 4877.67 4290.14 6562.18 4156.38 5316.75 4541.21 4164.68 5669.65 5934.22 5624.49 5762.59 7092.87 4666.81 3703.1 3954.91 6471.55 2965.01 6643.85 3637.61 5501.93 6222.42 5654.31 3745.84 4938.74 5690.26 4156.2 4497.59 5965.78 4374.35 4810.12 5643.58 5215.05 4292.06 5577.04 5006.58 4602.86 3688.8 4548.16 3369.23 5449.18 5492.26 5244.78 5762.84 3937.74 4749.8 6084.86 5478.92 4778.34 5551.36 6894.71 3091.3 4414.54 5789.98 6138.47 7054.71 3641.64 5489.43 5747.75 4277.89 5054.25 4796.33 4195.44 5539.32 5360.19 6496.85 5600.93 4874.39 5541.59 4124.71 5728.85 6337.56 4911.47 5803.39 5863.59 4381.97 6257.19 3255.82 5242.73 2812.98 4065.69 5603.15 4695.45 6052.7 3921.18 3798.62 5308.1 3666.57 4907.89 4937.02 5655.21 4645.41 4433.59 4320.28 5542.14 4218.06 5480.13 6308.71 4716.19 5514.76 3456.98 3498.2 5105.16 3066.13 4302.5 6006.16 6009.88 7055.53 5013.67 5826.04 5339.78 4970.88 4143.78 4763.66 4636.5 4940.42 5923.4 5085.71 5499.39 5644.82 5463.38 5945.21 5696.88 5607.14 3923.03 5975.63 5252.34 6396.74 4138.46 2775.04 3821.72 4986.77 6318.18 5586.81 3948.17 4621.75 4551.24 5358.59 4220.88 4515.71 6519.71 6640.13 5082.6 5810.84 4230.54 5094.44 3748.24 4655.49 4467.94 4850.81 6038.14 2540.31 6029.66 5527.54 5573.7 5697.4 4727.62 4270.95 4055.8 7325.81 5280.17 6425.26 5143.58 4794.96 6186.19 4839.34 5083.08 6834.49 5525.39 3998.5 5938.34 4024.3 6394.38 5555.28 5169.36 4737.14 4686.65 5834.74 5556.96 5788.23 5581.75 6392.01 3599.45 6730.19 4907.06 4073.93 3735.44 5163.9 6043.3 5952.75 6332.36 6122.55 2739.94 4931.53 4223.33 5911.67 3323.28 6695.82 6405.76 5794.24 4678.38 5448.61 5050.65 4827.33 5206.48 5513.57 5729.23 5226.0 3365.82 4538.95 5965.15 4780.2 6090.91 4946.42 5019.93 5081.78 6116.33 6263.44 6343.14 5774.97 5462.21 5750.71 5470.77 4831.47 4643.85 4004.04 4289.17 5564.02 4274.61 2965.79 4410.55 6898.19 6035.6 5137.34 4481.53 5330.45 4581.13 3610.4 4219.07 6387.01 5367.52 3092.35 4322.15 5210.03 3629.96 5478.47 5351.39 6142.37 6061.47 4933.21 5375.47 4723.12 5120.49 5201.36 5262.61 6302.8 5409.61 6038.2 4005.44 5206.78 5555.88 6732.43 5028.96 3866.16 6362.12 4484.76 4840.01 2980.99 5611.2 7933.0 4455.12 5173.87 4894.16 5380.13 5711.87 5118.27 4941.22 5932.23 5791.61 3369.13 4479.66 3043.85 5367.2 5461.13 4726.76 5839.13 5495.68 5489.34 5708.14 5537.72 3920.42 8332.24 6155.31 4553.56 5329.64 6049.55 5709.62 5835.78 4127.74 2476.04 5133.97 3942.07 7443.72 3937.08 5260.34 4709.35 6586.45 4373.3 4750.78 4163.5 5724.64 5078.86 5100.1 3561.29 4963.34 3295.83 4459.28 4260.92 5960.56 4118.84 4020.95 6313.06 3474.39 6470.3 4200.03 6062.05 5082.74 6915.83 6072.45 7099.43 5526.14 5198.29 5423.0 5077.33 3856.59 4746.52 5413.79 6338.89 6202.55 5025.39 4714.54 5893.5 3320.11 5030.91 6022.17 5119.37 3982.23 6163.38 4566.18 3459.9 4964.09 4809.42 5024.9 4306.53 5659.17 5094.81 5972.06 5713.22 5861.71 4359.04 3183.98 3794.63 4524.28 3778.1 5152.36 4511.82 5826.64 4220.65 6820.42 4816.2 6321.41 4896.52 4751.02 3372.79 5184.56 5282.64 4715.72 4669.66 4808.52 5046.33 5607.24 5053.92 6352.26 3847.38 3818.59 4863.72 5002.48 6623.85 4262.82 5102.36 4342.9 5069.84 4051.44 4241.89 5054.74 5941.72 5991.09 5126.91 6600.94 4788.58 5371.02 6155.1 5876.71 6262.72 5029.78 6515.84 4888.6 2990.77 4739.14 4918.77 4371.99 4219.78 3885.86 5235.29 4479.94 6250.23 6413.02 4863.27 5862.86 6049.79 3493.7 5374.98 4719.7 6939.12 4735.33 5411.85 5092.37 6444.77 6314.07 4287.63 5315.4 6449.45 3975.31 3689.45 3824.16 5572.95 3868.18 6723.16 5584.06 7111.16 4547.19 3817.13 5507.24 6851.54 4583.31 4503.89 5806.08 4853.39 4997.27 4093.08 4449.22 5543.27 4717.05 5287.2 6135.57 5998.38 4312.67 5423.8 4270.24 4989.15 5017.78 5015.69 6175.81 4727.24 6677.09 4305.57 6959.81 4829.35 5201.67 4424.7 4089.76 5526.55 3192.41 5215.15 4987.87 3315.57 5804.71 4764.96 5727.3 4242.52 5356.51 4277.88 3057.03 4087.15 4143.08 7500.97 3948.23 5228.18 5787.31 5065.11 3927.99 5868.82 4050.9 4978.31 4099.77 4537.32 4981.9 4656.78 3600.43 5131.24 5196.67 6496.67 5474.8 3664.11 5117.47 4925.63 5882.65 4434.19 5187.7 4623.61 4188.3 6261.75 5177.64 4255.31 5453.3 4407.9 3492.19 4584.5 5122.63 4703.08 6345.13 5274.19 5516.95 4406.4 4413.85 4844.57 4027.46 4470.98 5776.37 4516.28 3627.82 4044.45 5125.78 5344.43 4373.47 5045.38 5350.88 5372.61 3686.21 6480.17 5023.15 4377.07 3813.22 5101.59 5570.3 4336.42 5243.29 7589.94 3130.65 5628.24 5856.11 3327.49 4109.88 4234.94 4562.29 5013.13 5080.66 3417.33 4926.42 4164.13 4642.34 4520.1 4947.52 5874.89 4293.03 5813.4 4389.21 3791.79 4925.44 4754.05 4951.47 6084.93 4307.28 3697.96 4739.42 5538.93 5020.12 4745.45 2631.9 5281.28 6255.18 4668.71 4758.21 7228.46 6362.14 6719.88 5978.82 5266.5 4523.88 4066.38 4948.98 5227.52 4414.48 4092.24 5163.02 7144.24 4906.82 5687.83 5004.23 6442.69 6320.71 4648.04 3464.83 6607.87 4721.32 3293.56 3163.78 5274.14 4903.82 5746.28 4082.47 5511.6 4338.08 4378.3 6134.99 4094.73 4989.56 4718.54 4440.57 5548.29 6766.43 2315.64 4390.41 5226.56 5599.49 5313.22 3905.51 3999.94 4864.22 3901.8 5759.46 5083.41 3921.08 4190.31 5678.96 5262.19 4244.9 6070.58 6034.41 5452.83 5130.91 5402.24 4519.22 6445.22 3844.9 3695.36 3963.86 3848.93 4306.11 5935.47 3402.32 5903.66 4528.49 5004.67 5365.89 5992.26 3960.8 5070.39 4980.85 5714.58 5110.45 5208.32 5248.77 4083.97 4607.02 5153.74 4528.09 3895.51 4165.81 6291.51 4128.98 5174.89 5882.89 6246.22 4188.32 5246.61 4100.38 5344.77 4723.48 4899.11 5097.87 4278.07 7267.18 6256.02 5320.92 5269.18 4406.1 5034.59 4942.77 4263.33 4454.63 5080.18 5912.61 3279.1 4403.98 4560.84 4729.43 5776.57 4562.74 5683.26 5598.74 5139.5 7493.3 4814.55 3527.05 5698.77 2477.07 6413.11 4305.16 5092.28 4965.89 5659.95 4152.85 2908.7 4453.64 4517.73 5469.47 5660.16 3838.47 2588.37 6736.03 6235.57 3623.87 5916.16 6934.37 6113.95 4050.08 4097.57 5017.5 5563.79 6171.13 5511.88 4512.11 7055.42 5486.68 6048.86 4285.32 5490.43 5022.28 5197.52 4959.34 4948.5 4527.02 4531.14 5013.42 4564.34 3838.56 4871.44 5076.35 6020.48 6375.99 5200.05 5234.29 5313.66 5419.37 4466.03 4511.54 5409.33 5196.0 4923.9 4973.78 3329.99 3947.47 3296.27 5091.68 4713.25 4204.84 6243.0 6673.96 3556.85 3161.47 5441.96 3435.9 4288.3 5370.52 4652.29 5774.81 3746.31 5498.32 5027.98 5346.27 6475.1 4969.21 2691.29 2845.98 4880.14 5289.52 5314.85 4305.43 5450.44 6510.17 5742.65 5592.32 5381.16 5565.13 6193.35 6086.96 5233.78 3701.27 5653.9 5046.21 4929.14 5894.61 3979.54 5304.13 5944.09 5833.06 4923.41 4497.31 5384.76 5529.42 5257.12 5243.43 4537.14 5551.9 3757.34 6415.61 4687.64 4419.71 4888.12 5037.06 4541.8 5175.29 5842.56 5887.15 5412.31 3087.09 3423.15 4890.5 3981.07 5452.42 5328.22 6853.85 2395.5 3497.9 5941.61 5782.48 6248.6 5683.61 3836.45 5100.25 6894.26 4986.51 5339.38 5178.99 5383.07 4591.87 4790.78 4247.15 6552.22 5651.07 6248.81 5273.35 4091.8 2651.49 4645.58 5512.23 5275.32 5985.29 4898.94 4178.15 4613.31 4733.04 6119.09 5788.66 7531.29 5069.25 5048.89 5935.03 3991.03 6390.78 7435.25 6826.57 4788.87 4249.46 4495.87 3702.37 6022.72 4643.31 5527.33 6917.52 5402.21 4989.09 4982.31 3848.54 4307.48 5941.4 5331.02 4871.96 4863.23 4402.67 4470.61 4631.83 4384.88 6887.27 6008.49 4806.34 4287.53 5612.21 5945.08 4968.03 3306.14 5490.58 4863.79 4702.06 3830.46 6031.67 4689.15 6138.12 4428.78 4655.16 5409.66 4345.67 4765.72 4642.66 4039.91 4752.14 5329.59 4950.97 5512.16 3197.63 4863.96 5191.08 5203.08 7480.41 5163.77 4488.85 3731.84 4901.07 5186.3 3436.15 4151.76 4020.4 3493.47 4596.75 4933.65 5443.58 4558.46 5805.86 4049.02 4470.4 5311.03 5255.12 6169.11 5615.35 4027.09 6422.84 4502.18 5379.09 4602.85 4962.77 5872.05 4853.02 6259.23 5181.4 5088.44 5670.2 4711.62 4247.23 4114.24 4268.65 4694.83 5509.42 4354.08 4256.43 5936.36 4520.62 3903.75 4755.47 4485.99 5127.16 5475.8 5314.69 6050.81 5543.46 6185.89 5965.81 4750.17 5660.85 2330.66 3990.25 4177.19 3691.0 4752.51 3587.05 6229.37 6718.19 5282.91 4425.84 3797.33 7256.35 4800.69 6566.1 3555.86 6386.78 4996.99 4896.39 6081.14 5480.83 4220.46 4607.85 5128.57 6000.7 3169.67 5604.21 3361.92 6710.88 5395.14 3967.48 6213.04 6622.11 3685.13 6790.73 5251.4 3867.19 5097.69 5857.79 5276.7 5036.58 6119.63 5411.02 4752.9 4287.16 5199.44 4062.5 4435.51 5374.07 4588.7 5683.95 3766.55 4579.69 3554.48 5010.2 6496.52 5005.85 4216.17 6484.17 4721.02 4938.72 4254.37 3374.08 4031.78 6098.1 5708.99 5687.85 5346.68 5296.29 4611.53 4285.66 4896.11 5172.53 4135.62 5801.99 5534.94 5210.48 7644.38 7552.94 6101.92 5323.3 4998.21 4662.56 5166.79 5349.31 2976.22 3405.98 4649.22 5394.55 5094.52 4946.74 2682.24 5996.33 5928.32 5229.48 5475.7 4016.18 5526.75 5435.74 4244.99 5327.45 5560.26 3997.96 4439.35 3460.94 6184.4 3758.07 4373.45 4236.14 4407.87 5733.62 5282.51 4460.92 5945.89 4042.28 4105.55 4340.76 6065.22 4221.28 4456.39 5514.84 3633.79 5421.53 5937.08 6070.3 5233.29 4312.56 4612.06 5204.04 4750.58 5926.11 6667.68 5235.11 5211.38 5089.62 4590.55 4741.26 5920.32 4255.85 3988.3 6543.13 5149.72 5776.96 5464.25 5486.48 5301.47 4617.55 3645.12 5424.88 5415.85 8659.64 5469.13 6027.62 6123.03 5966.61 5711.11 4575.94 3546.71 5768.57 5564.23 5950.04 4231.83 2435.33 6401.43 4558.47 5020.71 2681.29 5094.48 3872.61 4238.4 4318.48 6132.95 5266.22 4860.33 3685.13 6004.68 4051.34 3627.55 6239.84 4635.6 4256.67 3457.48 3931.07 6430.39 5417.15 3688.16 4681.72 3949.6 4945.39 3950.63 5415.19 6631.19 4612.62 3619.07 4275.57 4467.04 5626.61 6385.23 5817.25 2983.99 2614.4 5061.98 6363.92 6205.93 4923.24 5830.72 4419.61 3828.81 5309.98 4082.57 5255.18 5169.9 3004.16 4767.78 5235.17 4421.12 4779.5 4435.36 5254.49 6649.96 4303.19 5784.3 3914.2 4256.57 6088.68 4643.56 4135.08 5620.74 4778.82 6124.08 5467.84 5053.95 5266.01 5253.37 5767.9 6515.8 5869.4 3685.65 3701.16 4186.6 5895.77 4732.09 6136.49 4356.25 4757.74 4216.95 4209.49 5742.74 4244.21 4947.24 3875.05 6200.54 5148.58 4199.45 6599.66 4055.54 4233.8 5765.42 6098.95 4997.83 4893.49 5325.44 5021.88 5956.65 4498.25 4188.87 3735.24 6574.95 4074.48 6333.29 5731.57 5997.88 5839.71 5576.92 6408.83 3930.79 4004.35 5226.97 3312.06 5180.76 3361.26 6799.4 5278.36 5865.39 4427.28 6079.11 3082.32 3658.37 7440.72 5376.71 5703.6 6326.18 5661.62 4867.08 4266.03 6648.68 4713.74 5407.78 4084.49 6632.99 4537.6 5147.36 6260.79 7177.44 4563.46 6553.94 5726.66 5460.65 5652.0 5463.41 5225.33 4929.75 6045.22 4614.3 5134.39 3532.3 5769.98 5442.32 2221.99 3580.58 4863.01 5356.79 5657.36 3619.79 5029.47 6306.21 2978.76 2040.66 7016.27 5884.9 3876.21 5689.26 4916.22 6022.7 4940.84 5750.07 4833.46 4809.67 6045.67 3946.28 3821.94 5439.9 5367.73 3540.11 4640.06 3456.47 4652.01 5421.64 7234.66 4207.54 4886.12 6419.12 4976.12 4817.16 5453.98 3991.42 4388.63 5102.75 4200.09 4597.29 5931.77 5151.21 5398.64 6817.57 4477.04 3614.96 3886.68 5703.74 5662.55 5737.92 4360.23 5365.24 5293.51 4763.96 5754.18 5008.63 3418.99 4480.95 4993.35 4409.63 6218.95 5521.25 3661.9 5370.85 5949.46 3178.54 3776.94 4765.02 5629.39 4448.13 5070.29 4807.28 4768.61 2261.36 5075.55 5280.69 4220.03 6923.84 5227.59 5449.46 6179.96 5703.07 6113.54 4662.43 3963.76 4043.66 5528.53 6799.88 3062.43 5990.52 5426.78 2967.38 4159.35 6477.91 4237.98 3091.67 6439.37 4081.97 5401.99 5580.92 5973.33 5067.46 3583.21 2511.46 4011.37 2775.69 4785.25 6519.43 5876.64 5424.46 4857.84 4908.49 4962.21 4858.44 3468.42 4673.35 4771.13 4992.42 5297.19 4351.38 5933.7 7248.4 5280.12 4444.97 5984.81 3498.16 4409.27 4588.99 5471.74 3548.39 3673.28 4928.27 4858.51 3375.28 5625.65 4301.61 6107.89 4446.84 5660.55 5148.08 4834.87 5760.22 3672.21 5938.17 4795.43 5097.95 5108.06 3573.73 4693.52 6853.04 4745.43 5831.96 4747.55 3056.7 3755.95 6234.32 4586.19 4446.06 3450.93 4270.74 5132.68 6595.03 4558.15 5222.16 4690.55 5107.23 5136.08 5558.68 4802.32 4010.57 4599.38 2684.03 5246.47 6157.04 4522.21 7422.36 5506.19 6719.94 4950.67 5832.37 6166.29 5453.6 5409.63 5294.77 4709.05 4630.82 6109.49 4813.08 5860.67 4540.86 5332.65 3764.1 4835.83 5604.35 6316.56 4332.87 6420.81 4715.58 4450.7 5151.52 5369.08 3101.75 4347.74 4009.62 5291.9 2081.58 4874.18 6505.78 5461.55 3298.2 4270.15 6865.76 6449.64 6464.8 4684.44 4749.59 5799.69 3809.69 5571.72 3208.96 7051.9 4184.23 4144.57 5550.75 6834.41 6226.14 5466.33 3000.29 5721.05 4247.69 4209.31 4514.39 6242.79 4321.21 4344.34 5713.03 3583.49 5052.84 4366.74 5297.16 3184.64 5206.33 5530.49 5653.03 3718.69 4514.79 2216.82 4509.89 4940.28 6752.75 5269.38 5607.3 2928.82 4222.4 4000.43 3420.08 4568.41 4912.04 3624.7 4539.07 5464.68 2685.81 5591.76 4585.31 5010.04 6625.18 5323.91 4570.98 5097.45 6293.89 2761.07 5737.75 4983.39 5366.52 3778.02 5533.72 5533.42 7132.12 3678.08 5518.57 4187.31 6191.29 3240.51 4527.99 5161.01 4298.15 4628.4 6051.83 4642.93 5941.9 4263.16 3973.12 3077.84 6642.76 6024.75 4497.78 5567.93 5987.42 4442.22 6451.33 5413.31 3012.99 6400.08 4743.59 5208.14 3317.83 4396.25 3763.05 5092.24 5549.49 5423.42 4518.04 4766.06 5012.5 5435.19 7093.13 4953.1 5818.95 4093.99 3940.49 4406.05 4680.94 5089.1 5828.35 5876.72 5236.43 5285.07 4680.14 4608.41 4187.94 5980.59 5021.77 3796.15 4801.8 7216.98 5271.02 5718.28 4601.74 5950.45 5849.65 5134.67 4165.21 4215.0 4936.96 4603.5 4481.76 5452.78 5065.26 4304.41 6192.0 5885.28 6579.31 3004.34 5323.55 3022.6 4811.76 4914.45 4698.87 5351.56 4661.03 5160.59 4691.91 5262.35 4475.83 4255.34 4510.8 5889.35 4394.56 4275.07 5825.38 4185.61 4047.87 5742.47 4917.99 6552.21 4367.78 5417.8 5146.37 4836.16 5300.96 5151.11 5463.48 5730.33 5545.46 4376.7 4543.1 5190.61 8325.01 3764.06 4440.81 4523.39 5278.56 5434.47 5829.22 5631.14 4243.79 5811.18 5433.65 4008.15 4887.76 4669.06 4811.32 4286.49 6184.88 5829.32 5551.95 3918.87 2275.45 4633.05 4901.2 6605.86 4383.56 4990.79 3562.79 4516.53 4122.92 3604.14 4452.54 5810.77 2711.19 5474.15 4028.32 4099.92 4884.59 3858.06 4511.7 4083.79 4304.63 5263.27 6300.92 4173.54 5599.29 6038.68 5046.12 4807.4 7013.17 3805.67 4590.01 6506.86 5088.57 5580.34 3852.6 5775.31 4706.5 4647.67 5375.12 4356.36 4892.44 5578.94 7610.49 4286.17 3684.56 6028.09 5375.1 4172.6 5313.12 3984.88 5318.53 4732.09 4320.42 4281.98 7165.9 5064.79 5344.83 5480.3 7509.24 4146.81 5896.26 5388.78 6101.13 4573.72 5099.21 6969.28 5636.4 5698.96 4350.12 5227.02 5670.0 4232.16 5222.51 4344.51 5680.94 3834.43 3781.77 5581.55 5193.01 3474.5 6550.44 4250.88 3860.83 6348.03 5732.27 4792.39 5146.37 6917.62 4013.38 4343.78 5263.3 3352.35 4909.65 6523.86 7693.4 4326.48 4437.07 3449.37 5491.9 6405.0 4659.16 5789.55 4909.31 6522.59 5711.62 4798.17 5166.79 5425.98 6479.39 2895.63 4997.91 5079.22 5381.54 4714.83 7519.2 6355.68 4478.6 3953.55 4063.9 4469.54 4314.56 3928.53 5606.51 5740.65 3834.47 6349.67 6329.53 6101.86 4227.41 5993.0 4803.57 5966.42 4110.59 3332.49 5354.66 4214.44 5378.23 4787.97 3746.36 6789.23 3989.7 4777.03 4246.61 5452.36 3804.5 6486.37 5498.42 3344.57 5220.76 7046.11 3427.63 4863.97 6342.48 5756.75 5599.7 4587.67 4163.74 3665.95 4296.69 4095.75 3319.67 3603.51 4298.45 5283.8 4076.59 6609.84 5135.96 6464.15 5658.37 4707.06 4972.17 6074.94 5491.37 4222.77 3783.54 5268.38 3475.67 5527.23 4805.33 7038.89 3863.67 4814.12 5067.56 6137.8 6069.3 2735.53 5116.6 3747.03 2783.85 4356.49 4526.81 3994.07 4219.94 5907.46 4264.91 6740.71 5399.29 5971.22 6602.43 3568.28 5996.66 4405.42 2995.67 3598.08 4599.81 5698.23 7300.58 3608.06 6633.61 5217.95 4867.7 5484.36 4277.24 4075.28 5291.05 5161.1 4619.2 5166.41 5067.56 2596.96 5701.75 4350.15 4139.3 6541.45 4750.49 5078.31 5391.48 4923.43 5131.15 4847.14 3950.27 5116.66 3566.79 5374.67 4981.43 4741.28 4215.2 5069.89 4157.29 6813.72 5327.75 4609.02 4896.65 4946.23 4638.18 4196.37 6448.66 4453.97 6945.98 5138.2 3503.41 5783.48 4449.98 4701.5 4504.35 4771.65 4840.44 5093.82 5951.81 3924.14 6918.35 4834.3 6238.32 6804.79 6471.42 6372.13 5369.5 4428.14 5164.1 4124.49 4479.11 5714.25 6685.4 5699.53 4850.06 6332.01 7044.29 4234.18 7085.01 5980.95 6193.08 3862.77 5887.01 5168.35 5388.39 5335.47 3728.18 5633.61 5048.19 6799.23 4888.27 4592.15 6487.56 4854.11 5533.19 4998.22 5417.21 6104.26 5583.61 6063.64 4986.71 7382.3 4022.56 5522.21 3772.3 4855.01 6208.9 4923.57 3340.09 6061.63 2279.05 4829.35 8137.11 5484.32 6650.77 4067.96 4824.12 7104.73 6162.3 3272.75 4264.54 3516.27 7043.44 4263.78 4643.9 5228.75 6047.14 5009.83 5210.38 5717.8 3629.44 5003.78 3299.24 6246.56 4061.6 2603.64 5107.0 6212.15 6502.97 4783.07 4852.58 6083.28 5211.6 3556.79 5806.31 5456.71 7317.04 6412.67 7001.83 5012.97 4036.91 5589.37 5439.49 6639.64 5212.43 5454.12 6348.54 4066.57 5642.35 6357.47 5404.01 6016.19 5535.91 3230.13 6176.67 5325.96 5412.24 5016.02 4920.21 4581.37 4049.16 5851.61 3936.95 6153.94 6836.82 3858.17 4631.99 4740.98 3185.39 5128.77 7122.87 5797.36 4243.26 4153.84 5119.86 5089.26 5084.17 4901.44 3776.8 5096.43 6156.21 2460.79 4653.83 6171.71 3628.89 6589.82 4668.88 5027.43 5522.75 5867.64 4438.58 6059.93 5602.53 5073.02 6545.43 3472.91 6760.92 4989.2 4711.04 7144.05 4506.18 2970.9 6542.5 4383.47 5971.21 6318.23 4206.98 5156.76 6101.57 4891.38 4793.65 2949.12 5955.86 4532.89 4533.37 4848.46 5742.09 2779.99 2884.65 5887.38 5807.46 6942.34 3658.05 5478.11 4549.69 