# vtk DataFile Version 2.0
Time step 19
ASCII
DATASET UNSTRUCTURED_GRID
POINTS 5000 float
8510.39 184891.0 0
12438.4 184721.0 0
16747.6 184042.0 0
27674.7 182431.0 0
33185.7 185114.0 0
57006.3 184684.0 0
72701.0 185028.0 0
87408.2 185058.0 0
105951.0 185134.0 0
133425.0 185235.0 0
157587.0 185375.0 0
167013.0 185080.0 0
171832.0 183961.0 0
177736.0 183998.0 0
182940.0 183183.0 0
187396.0 185034.0 0
196084.0 185359.0 0
201750.0 184717.0 0
212987.0 184824.0 0
225800.0 185161.0 0
230433.0 185025.0 0
241170.0 184719.0 0
252677.0 184701.0 0
259049.0 185183.0 0
268742.0 185185.0 0
278880.0 184120.0 0
297320.0 184087.0 0
303661.0 184886.0 0
312125.0 185294.0 0
337221.0 185395.0 0
345897.0 184947.0 0
361817.0 184491.0 0
372010.0 182527.0 0
377028.0 184502.0 0
382608.0 185366.0 0
388129.0 184656.0 0
394016.0 183974.0 0
403644.0 182917.0 0
408583.0 184124.0 0
422734.0 183927.0 0
432485.0 183443.0 0
442096.0 184726.0 0
446258.0 184301.0 0
450670.0 185076.0 0
455214.0 185030.0 0
460243.0 184888.0 0
465796.0 185252.0 0
471631.0 184511.0 0
477065.0 183316.0 0
485845.0 183233.0 0
491674.0 184777.0 0
497601.0 183269.0 0
2398.12 185511.0 0
6050.75 188219.0 0
11078.1 189236.0 0
17321.9 189945.0 0
22243.6 185675.0 0
28505.5 188785.0 0
34956.7 190386.0 0
38172.7 185696.0 0
42691.7 185834.0 0
47477.3 185753.0 0
48265.9 189751.0 0
52137.1 185840.0 0
57991.5 190126.0 0
62763.5 185756.0 0
67994.7 185889.0 0
72124.1 190149.0 0
77500.0 185769.0 0
82500.0 185758.0 0
87906.7 189816.0 0
92500.0 185796.0 0
97196.5 185817.0 0
101296.0 185734.0 0
102467.0 190469.0 0
111934.0 185610.0 0
108245.0 189727.0 0
117848.0 185788.0 0
123328.0 185865.0 0
128342.0 185985.0 0
127727.0 190422.0 0
138121.0 185918.0 0
142500.0 185839.0 0
142773.0 190263.0 0
147500.0 185773.0 0
152501.0 185743.0 0
151947.0 190489.0 0
156872.0 189427.0 0
162558.0 185531.0 0
161307.0 190249.0 0
166520.0 189752.0 0
172968.0 189531.0 0
178372.0 189411.0 0
183528.0 188251.0 0
188600.0 189481.0 0
192500.0 186191.0 0
193567.0 190337.0 0
198248.0 189707.0 0
203920.0 190338.0 0
207651.0 185478.0 0
213693.0 189374.0 0
218129.0 185899.0 0
222480.0 185912.0 0
226809.0 189395.0 0
232213.0 190442.0 0
235810.0 186014.0 0
246501.0 186723.0 0
257256.0 189820.0 0
263773.0 186263.0 0
262325.0 190441.0 0
267082.0 190034.0 0
273937.0 185480.0 0
271629.0 189353.0 0
277047.0 189756.0 0
282030.0 187451.0 0
286326.0 185760.0 0
291718.0 186218.0 0
298243.0 189598.0 0
307736.0 187452.0 0
317926.0 185930.0 0
323243.0 185825.0 0
322440.0 190295.0 0
327579.0 186085.0 0
332204.0 185685.0 0
341018.0 186606.0 0
337708.0 190246.0 0
343303.0 189634.0 0
350692.0 186858.0 0
347741.0 190052.0 0
355270.0 185868.0 0
361451.0 189804.0 0
357768.0 190287.0 0
365126.0 189524.0 0
367952.0 185842.0 0
372927.0 189329.0 0
378824.0 189049.0 0
382010.0 190184.0 0
388368.0 189744.0 0
393547.0 190117.0 0
399192.0 185656.0 0
402988.0 189116.0 0
412476.0 185768.0 0
408376.0 188404.0 0
412853.0 189711.0 0
417500.0 185802.0 0
417511.0 190313.0 0
422126.0 188564.0 0
427273.0 185626.0 0
433411.0 188680.0 0
437537.0 185779.0 0
443212.0 189011.0 0
447597.0 188310.0 0
451937.0 189558.0 0
457167.0 189763.0 0
466601.0 189821.0 0
475185.0 189802.0 0
481312.0 186172.0 0
486594.0 189432.0 0
496837.0 188778.0 0
2283.01 190556.0 0
6745.1 193265.0 0
11846.9 195087.0 0
16326.1 195154.0 0
22992.5 191208.0 0
20504.9 195178.0 0
32608.2 195457.0 0
40329.0 190707.0 0
38248.4 195218.0 0
44451.6 191050.0 0
42955.9 195593.0 0
47577.2 194473.0 0
52500.0 190800.0 0
62847.0 190855.0 0
67505.2 190527.0 0
67687.3 195371.0 0
77500.0 190927.0 0
82116.1 190573.0 0
81955.7 195299.0 0
86961.4 195332.0 0
92500.0 190936.0 0
97185.8 190579.0 0
97547.9 195098.0 0
107924.0 194506.0 0
112500.0 190872.0 0
116734.0 195560.0 0
117500.0 190953.0 0
120857.0 195407.0 0
122500.0 190876.0 0
125867.0 194791.0 0
132493.0 190770.0 0
137520.0 190785.0 0
140999.0 194387.0 0
146936.0 190611.0 0
146313.0 195502.0 0
156251.0 193986.0 0
170002.0 194322.0 0
176298.0 195171.0 0
182185.0 193391.0 0
194264.0 195362.0 0
199975.0 194810.0 0
208109.0 195457.0 0
209356.0 190557.0 0
213298.0 194185.0 0
217606.0 190968.0 0
222038.0 190750.0 0
222566.0 195024.0 0
226875.0 194400.0 0
237695.0 191262.0 0
243293.0 191106.0 0
248454.0 190800.0 0
246853.0 194875.0 0
252671.0 191267.0 0
257726.0 194572.0 0
262708.0 195221.0 0
267474.0 194492.0 0
273031.0 194602.0 0
279886.0 193794.0 0
282827.0 191138.0 0
287500.0 190850.0 0
292902.0 190712.0 0
291031.0 195030.0 0
296748.0 194648.0 0
303109.0 190556.0 0
307450.0 190745.0 0
307709.0 195175.0 0
312501.0 191044.0 0
317499.0 190808.0 0
318199.0 195305.0 0
322515.0 194300.0 0
327500.0 190830.0 0
332500.0 190903.0 0
336508.0 194910.0 0
341408.0 193839.0 0
346837.0 194439.0 0
351889.0 195592.0 0
352666.0 190752.0 0
356025.0 194154.0 0
361254.0 194505.0 0
366512.0 193609.0 0
371103.0 195471.0 0
377674.0 194982.0 0
384360.0 193522.0 0
392422.0 194941.0 0
397215.0 194898.0 0
398130.0 190549.0 0
402854.0 195356.0 0
409237.0 194048.0 0
419120.0 195008.0 0
428300.0 190575.0 0
424102.0 193388.0 0
432238.0 194304.0 0
437504.0 190845.0 0
437327.0 195063.0 0
442337.0 194244.0 0
448253.0 193381.0 0
454151.0 194967.0 0
462427.0 191223.0 0
470196.0 190997.0 0
472371.0 194321.0 0
477758.0 195291.0 0
480802.0 191446.0 0
492081.0 191682.0 0
496593.0 195355.0 0
2238.62 196440.0 0
8049.55 199106.0 0
13471.2 199706.0 0
17750.8 199000.0 0
22413.7 199553.0 0
27030.3 195617.0 0
32054.0 199743.0 0
37571.5 200422.0 0
43185.3 200656.0 0
49062.5 199260.0 0
51792.6 196228.0 0
56545.9 195745.0 0
59217.8 200421.0 0
62106.3 195736.0 0
63613.4 200065.0 0
73697.9 195693.0 0
72602.9 200568.0 0
78212.2 196124.0 0
77068.9 200054.0 0
82136.7 200320.0 0
87334.4 200506.0 0
92531.5 195687.0 0
97734.9 200450.0 0
102630.0 196231.0 0
107688.0 200004.0 0
112496.0 195778.0 0
113107.0 200109.0 0
118133.0 200039.0 0
123414.0 199393.0 0
131162.0 196487.0 0
136449.0 196436.0 0
137736.0 200352.0 0
142523.0 200506.0 0
151840.0 197105.0 0
148000.0 200113.0 0
156823.0 199399.0 0
161708.0 195940.0 0
166531.0 197762.0 0
170843.0 200351.0 0
182232.0 198869.0 0
188051.0 195643.0 0
197220.0 200093.0 0
203051.0 199953.0 0
204287.0 195810.0 0
217709.0 195904.0 0
214360.0 199855.0 0
222046.0 199285.0 0
227531.0 199947.0 0
232449.0 195907.0 0
234307.0 200299.0 0
237432.0 195688.0 0
237844.0 199017.0 0
241798.0 196341.0 0
246242.0 200063.0 0
251797.0 196161.0 0
255881.0 199295.0 0
260346.0 198968.0 0
266367.0 199181.0 0
278362.0 199294.0 0
283566.0 196072.0 0
287228.0 196146.0 0
288762.0 199303.0 0
302245.0 195794.0 0
313215.0 196302.0 0
316235.0 200028.0 0
321058.0 199565.0 0
326815.0 196187.0 0
329889.0 199745.0 0
331859.0 195923.0 0
339782.0 199233.0 0
346085.0 200694.0 0
357350.0 198110.0 0
361676.0 200498.0 0
366562.0 198301.0 0
382813.0 199036.0 0
388343.0 196711.0 0
399510.0 200527.0 0
408061.0 199407.0 0
404314.0 200541.0 0
414399.0 196614.0 0
416954.0 200403.0 0
427671.0 196417.0 0
425638.0 200040.0 0
431044.0 200493.0 0
437126.0 199258.0 0
441828.0 199833.0 0
446541.0 198392.0 0
450861.0 198926.0 0
458969.0 195997.0 0
463149.0 195766.0 0
461231.0 200444.0 0
467511.0 195903.0 0
467006.0 200234.0 0
472617.0 199279.0 0
482616.0 196145.0 0
487503.0 197230.0 0
491508.0 195743.0 0
492123.0 199604.0 0
2182.12 200854.0 0
1484.83 205562.0 0
7135.89 205409.0 0
11883.0 203437.0 0
17146.8 204176.0 0
23035.7 204937.0 0
26972.8 201552.0 0
30212.5 204284.0 0
34864.1 205072.0 0
39751.6 204481.0 0
48548.0 204481.0 0
53807.2 200922.0 0
57204.2 204811.0 0
63075.8 204842.0 0
68064.8 201048.0 0
73384.1 204629.0 0
78284.7 205206.0 0
83576.0 205260.0 0
88380.2 205327.0 0
92270.1 201013.0 0
102770.0 201700.0 0
105590.0 205520.0 0
111305.0 204694.0 0
116639.0 205298.0 0
122097.0 204585.0 0
127500.0 200951.0 0
126926.0 205028.0 0
131218.0 205700.0 0
132687.0 201318.0 0
136576.0 204903.0 0
147009.0 204390.0 0
153406.0 201764.0 0
157933.0 205314.0 0
160407.0 200752.0 0
164429.0 201464.0 0
167055.0 204331.0 0
177034.0 201739.0 0
182931.0 205783.0 0
186625.0 201276.0 0
191646.0 200774.0 0
193690.0 204858.0 0
189202.0 205691.0 0
203174.0 205054.0 0
208745.0 201803.0 0
218724.0 201134.0 0
216327.0 204468.0 0
221184.0 204781.0 0
231988.0 204813.0 0
237943.0 203753.0 0
241777.0 200942.0 0
242849.0 205584.0 0
248038.0 205148.0 0
251525.0 201420.0 0
252905.0 205448.0 0
257735.0 204477.0 0
262645.0 202543.0 0
267605.0 205120.0 0
271767.0 200875.0 0
284359.0 200813.0 0
283575.0 205399.0 0
288837.0 204623.0 0
292985.0 201019.0 0
293489.0 205617.0 0
298944.0 200951.0 0
303985.0 201170.0 0
302639.0 205476.0 0
307500.0 200994.0 0
312166.0 200813.0 0
311958.0 205552.0 0
316989.0 204456.0 0
325842.0 201117.0 0
322318.0 205150.0 0
330966.0 205262.0 0
334361.0 201721.0 0
341494.0 204717.0 0
337103.0 205634.0 0
352841.0 201167.0 0
357888.0 204678.0 0
367114.0 203207.0 0
362977.0 205469.0 0
371935.0 201095.0 0
377880.0 202429.0 0
387366.0 200894.0 0
383266.0 205061.0 0
388190.0 205076.0 0
393043.0 201592.0 0
403061.0 204522.0 0
412358.0 201089.0 0
408166.0 204257.0 0
414662.0 204725.0 0
421360.0 201681.0 0
427474.0 204510.0 0
436092.0 204233.0 0
441964.0 205494.0 0
448301.0 203916.0 0
455436.0 200726.0 0
464960.0 205319.0 0
473863.0 204501.0 0
478863.0 200789.0 0
481990.0 205749.0 0
484722.0 201283.0 0
489145.0 202010.0 0
486776.0 205624.0 0
496755.0 201997.0 0
2747.74 209602.0 0
12654.4 207941.0 0
18083.2 209943.0 0
23737.7 210692.0 0
28640.2 208331.0 0
33612.4 210626.0 0
39110.2 209320.0 0
43658.3 206339.0 0
43713.3 210548.0 0
48660.7 210450.0 0
53115.8 206902.0 0
59701.8 209827.0 0
68326.3 206223.0 0
68276.9 210441.0 0
72220.2 208515.0 0
76326.1 210111.0 0
81948.5 210685.0 0
87892.8 210398.0 0
92500.0 205859.0 0
92641.8 210804.0 0
96909.8 210438.0 0
97240.8 205865.0 0
101199.0 205916.0 0
101493.0 210559.0 0
106438.0 210856.0 0
111043.0 209543.0 0
115384.0 210014.0 0
120869.0 210604.0 0
127439.0 210292.0 0
133298.0 210154.0 0
142211.0 206199.0 0
138722.0 210641.0 0
143739.0 210807.0 0
151795.0 206333.0 0
148384.0 210419.0 0
161435.0 209788.0 0
[...]
POINT_DATA 5000
SCALARS Radius float 1
LOOKUP_TABLE default
3979.26 3471.03 5253.55 5782.6 4862.21 5379.87 4792.73 3485.26 5337.48 5495.39 4133.88 3850.77 6044.04 5415.48 5120.0 3863.18 4998.37 6182.6 5258.36 3163.97 5812.43 5906.14 7513.1 5254.28 5733.48 5580.89 6810.52 5840.26 6110.27 4380.59 6716.79 7613.27 5529.52 5255.32 6037.08 5096.78 6756.95 6324.23 3843.58 4270.53 5191.63 4150.99 4216.92 4742.68 4344.58 5634.83 5495.84 6268.1 4861.06 5320.28 6739.08 4797.52 4796.58 4298.67 5960.66 6608.73 5820.48 7034.11 6261.42 5113.21 3929.19 4107.03 4043.57 4478.15 5681.38 5925.6 4501.51 5513.6 4736.58 4931.38 6082.81 4329.05 4151.94 4049.23 5601.05 6124.89 4929.8 5708.81 5252.48 4780.03 4015.92 3996.0 3856.1 3936.02 4665.12 3383.4 5980.74 4094.62 4834.9 4927.02 5546.39 5325.36 5484.83 5085.53 5351.6 2356.98 4730.36 4715.55 5867.73 5492.18 3951.75 5061.3 3642.12 5542.27 5054.98 5122.66 5484.19 4688.68 4436.4 4402.52 4517.56 4672.91 4182.53 5903.42 3588.44 5645.7 5176.86 4366.19 3672.51 5561.06 5073.35 4008.92 3615.22 5670.04 3589.27 4827.82 3997.1 3607.45 3260.67 5759.91 3038.33 4392.68 4333.2 4951.03 7199.21 4523.7 2240.39 5091.39 5293.9 4129.43 6142.94 3320.52 4727.24 4602.25 4194.5 4790.08 5082.47 5344.25 5445.87 4593.7 4704.72 4177.94 4571.7 5896.46 3784.5 6481.79 5374.51 7042.12 6326.39 4569.12 5873.69 4962.09 3999.48 5011.84 4359.62 2586.12 4502.5 5433.8 3771.48 4011.77 5499.11 4271.69 4138.42 3708.04 5987.17 3240.09 4556.36 4901.41 5110.37 3191.99 4685.34 4382.74 4651.28 3586.91 3693.63 3103.0 4516.43 3554.9 5481.78 5542.21 4487.31 5043.05 4044.71 5816.2 5109.54 5945.65 6759.9 5538.89 5416.38 6059.59 4955.55 5013.56 5701.86 4499.64 4375.68 4238.81 4468.59 6030.06 5170.02 3557.27 5200.76 4927.31 4862.64 5185.34 4432.58 6684.56 3968.64 3955.56 3761.32 4118.05 5292.64 6166.5 5553.16 2938.66 5936.02 4940.78 4231.61 4861.08 4003.05 3942.53 3379.84 4805.87 5227.21 5697.78 4667.36 5123.52 4091.31 6372.62 4295.38 5615.42 7565.34 5923.5 4612.68 4973.83 3912.37 6342.25 6691.39 5135.69 4763.45 5344.0 6045.46 3815.26 4245.72 5908.1 6048.7 6133.92 5022.8 3780.23 4166.08 4123.6 5224.12 4819.73 6817.32 4471.58 6098.14 4472.17 4203.26 5188.81 6946.21 6057.22 5062.71 6125.34 4527.08 3633.87 5922.5 4850.01 5198.77 3970.25 6013.14 3979.82 2765.2 5011.31 5138.31 5264.06 5664.98 6327.9 5927.43 6355.42 4384.42 4362.19 5690.56 4948.92 5637.59 4937.14 3307.12 5924.89 5693.81 4002.16 4174.52 6483.19 3829.13 6230.49 5418.62 7021.47 5740.68 5926.61 2720.68 3563.63 5836.15 4345.55 6704.06 5885.03 3653.41 2837.58 3871.88 5325.02 5246.2 5017.13 5279.39 3673.74 5205.43 7447.37 4688.67 2635.86 4385.06 5065.13 5305.17 4290.3 5399.73 5390.22 3888.21 4712.33 6038.78 6902.81 4254.17 5629.19 5090.24 5530.87 4281.49 5978.9 4187.56 3629.62 4840.84 4301.06 4020.32 4290.14 6562.18 4156.38 5316.75 4541.21 4164.68 3719.84 4178.4 5934.22 3095.48 5624.49 5762.59 4850.14 5163.55 3382.7 3954.91 4319.79 2965.01 6643.85 3637.61 6222.42 5654.31 4730.41 3745.84 5690.26 4156.2 5965.78 5347.48 4810.12 5643.58 5147.67 4292.06 5577.04 5006.58 4602.86 4659.59 4048.37 5449.18 5492.26 5244.78 5762.84 3115.91 3937.74 4749.8 4493.48 6084.86 4778.34 4138.16 6894.71 3486.22 4684.5 3091.3 6458.82 7054.71 4601.27 5493.32 3641.64 5489.43 4277.89 6051.14 3261.21 4195.44 5539.32 6496.85 5600.93 3856.01 4874.39 5541.59 4390.66 4124.71 5728.85 4827.23 4911.47 6116.18 4924.6 4381.97 6257.19 4733.32 3255.82 7184.19 2899.43 2812.98 2924.37 3867.67 5603.15 4695.45 4660.72 6052.7 3921.18 5891.05 5308.1 3666.57 6644.76 5655.21 4786.6 4645.41 5740.84 6445.94 4310.18 5542.14 4218.06 7134.64 4716.19 4997.27 5514.76 3456.98 4877.67 3066.13 6006.16 6009.88 7055.53 5669.65 5339.78 4970.88 7092.87 4636.5 4666.81 3703.1 4940.42 6471.55 5499.39 5501.93 5463.38 5945.21 4938.74 5696.88 5607.14 4497.59 3923.03 5975.63 4374.35 6396.74 5215.05 2775.04 3821.72 4986.77 6318.18 5586.81 3688.8 3948.17 4621.75 4548.16 3369.23 4551.24 5358.59 4220.88 4515.71 6519.71 6640.13 5082.6 5478.92 5810.84 4230.54 5551.36 5094.44 4467.94 4414.54 4850.81 5789.98 6138.47 5527.54 5573.7 5747.75 4727.62 5054.25 4796.33 4055.8 7325.81 5280.17 5360.19 4794.96 5083.08 6834.49 6337.56 5525.39 5803.39 5863.59 4024.3 6394.38 5555.28 5242.73 4737.14 4065.69 5556.96 3798.62 5581.75 6392.01 4907.89 6730.19 4937.02 4073.93 6043.3 5952.75 4433.59 4320.28 6122.55 2739.94 4931.53 5480.13 6308.71 3323.28 6695.82 6405.76 3498.2 5794.24 5105.16 5448.61 4302.5 5050.65 4827.33 5513.57 5013.67 5826.04 4538.95 4143.78 5965.15 4763.66 4946.42 5923.4 5085.71 6116.33 5644.82 6343.14 5750.71 4831.47 4643.85 4004.04 5252.34 5564.02 4138.46 4274.61 2965.79 6898.19 6035.6 4481.53 5330.45 4581.13 3610.4 6387.01 5367.52 3092.35 5210.03 5351.39 3748.24 6142.37 4655.49 4933.21 5375.47 6038.14 2540.31 6029.66 5262.61 5697.4 6038.2 4270.95 4005.44 5206.78 6425.26 5143.58 6186.19 4839.34 4840.01 2980.99 7933.0 4455.12 3998.5 5938.34 5380.13 5118.27 5169.36 5932.23 4686.65 5834.74 3369.13 4479.66 5788.23 3043.85 5461.13 3599.45 4907.06 5489.34 3735.44 5163.9 6332.36 6155.31 4223.33 5911.67 5709.62 5835.78 4127.74 2476.04 4678.38 3942.07 7443.72 3937.08 5260.34 5206.48 4709.35 6586.45 5729.23 4373.3 5226.0 3365.82 5724.64 4780.2 6090.91 4963.34 5019.93 5081.78 6263.44 5774.97 5462.21 4020.95 5470.77 3474.39 6062.05 4289.17 6072.45 4410.55 5526.14 5137.34 5423.0 3856.59 4219.07 5413.79 6202.55 4322.15 5025.39 4714.54 3629.96 5893.5 5478.47 3320.11 5030.91 6022.17 5119.37 6061.47 6163.38 4566.18 4723.12 5120.49 4964.09 5201.36 5024.9 6302.8 5409.61 5094.81 5972.06 5713.22 5555.88 6732.43 5028.96 3866.16 6362.12 4484.76 3778.1 5152.36 4511.82 5611.2 6820.42 5173.87 4894.16 4896.52 5711.87 3372.79 4941.22 5282.64 5791.61 4669.66 4808.52 5367.2 5607.24 4726.76 5053.92 5839.13 5495.68 4863.72 5002.48 5708.14 5537.72 4262.82 3920.42 5102.36 8332.24 4553.56 5329.64 6049.55 5991.09 5133.97 6600.94 5371.02 6155.1 5876.71 4750.78 5029.78 4163.5 4888.6 5078.86 4918.77 5100.1 3561.29 4371.99 4219.78 3295.83 3885.86 4459.28 4260.92 4479.94 6250.23 5960.56 4118.84 5862.86 6313.06 3493.7 6470.3 4200.03 6939.12 5082.74 6915.83 5092.37 6444.77 7099.43 4287.63 5198.29 6449.45 5077.33 4746.52 3689.45 5572.95 6338.89 5584.06 7111.16 4547.19 3817.13 3982.23 4583.31 5806.08 3459.9 4853.39 4997.27 4093.08 4809.42 4306.53 4717.05 5659.17 6135.57 4312.67 5861.71 4359.04 3183.98 3794.63 5017.78 4524.28 6175.81 4727.24 6677.09 5826.64 4220.65 4816.2 5201.67 6321.41 4089.76 4751.02 3192.41 5184.56 4987.87 4715.72 3315.57 5804.71 5046.33 4764.96 4242.52 5356.51 6352.26 3847.38 3818.59 3057.03 4087.15 4143.08 7500.97 6623.85 5228.18 5787.31 4342.9 5065.11 5069.84 4051.44 4050.9 4978.31 4241.89 4099.77 5054.74 5941.72 4656.78 5126.91 3600.43 4788.58 5131.24 5196.67 6262.72 3664.11 6515.84 2990.77 5882.65 4739.14 5187.7 4188.3 6261.75 5235.29 5177.64 4255.31 5453.3 6413.02 4863.27 3492.19 4584.5 5122.63 6049.79 5374.98 4719.7 5274.19 4735.33 4406.4 5411.85 4844.57 4027.46 6314.07 5776.37 5315.4 4516.28 3627.82 3975.31 4044.45 3824.16 5125.78 5344.43 3868.18 4373.47 5045.38 6723.16 5372.61 3686.21 6480.17 5507.24 5023.15 4377.07 6851.54 3813.22 4503.89 5570.3 4336.42 5243.29 7589.94 4449.22 3130.65 5543.27 5856.11 5287.2 4109.88 5998.38 5013.13 5423.8 4270.24 3417.33 4989.15 4926.42 4164.13 5015.69 4642.34 4947.52 4305.57 6959.81 4829.35 4389.21 3791.79 4424.7 4925.44 4754.05 5526.55 6084.93 5215.15 3697.96 4739.42 5538.93 5020.12 5727.3 2631.9 5281.28 4277.88 4668.71 4758.21 7228.46 3948.23 5978.82 3927.99 5868.82 4948.98 5227.52 4414.48 4537.32 4981.9 5163.02 7144.24 4906.82 5687.83 5004.23 6496.67 5474.8 4648.04 6607.87 5117.47 4721.32 4925.63 3293.56 3163.78 5274.14 4434.19 4903.82 5746.28 4623.61 5511.6 4338.08 4378.3 6134.99 4094.73 4407.9 4440.57 5548.29 6766.43 4703.08 2315.64 6345.13 5226.56 5516.95 5313.22 4413.85 3999.94 4470.98 4864.22 5759.46 3921.08 4190.31 5678.96 5262.19 4244.9 6070.58 6034.41 5350.88 5130.91 5402.24 4519.22 6445.22 3844.9 5101.59 3963.86 3848.93 4306.11 5935.47 5903.66 5628.24 5004.67 5365.89 3327.49 5992.26 4234.94 3960.8 4562.29 4980.85 5080.66 5110.45 5248.77 4083.97 4520.1 4607.02 5153.74 5874.89 4528.09 4293.03 5813.4 6291.51 4128.98 5882.89 6246.22 4951.47 5246.61 4307.28 4100.38 5344.77 4723.48 4899.11 5097.87 4745.45 4278.07 7267.18 6255.18 5269.18 4406.1 6362.14 6719.88 4454.63 5080.18 5266.5 4523.88 3279.1 4066.38 4403.98 4560.84 4729.43 4092.24 5776.57 4562.74 5598.74 7493.3 6442.69 6320.71 3464.83 5698.77 6413.11 4305.16 5092.28 4965.89 5659.95 4152.85 4082.47 2908.7 4453.64 4517.73 5469.47 5660.16 4989.56 4718.54 2588.37 6736.03 3623.87 5916.16 4390.41 5599.49 4097.57 3905.51 5017.5 5563.79 3901.8 6171.13 5083.41 7055.42 6048.86 4285.32 5490.43 5452.83 4959.34 4948.5 4527.02 4531.14 3695.36 4564.34 4871.44 5076.35 6020.48 6375.99 3402.32 5200.05 4528.49 5419.37 4466.03 4511.54 5409.33 5070.39 4923.9 5714.58 3329.99 5208.32 3947.47 3296.27 4713.25 4204.84 6243.0 3895.51 6673.96 4165.81 3556.85 5441.96 3435.9 5174.89 4288.3 5370.52 4188.32 4652.29 5774.81 3746.31 5027.98 6475.1 4969.21 2691.29 6256.02 5320.92 5314.85 4305.43 5450.44 5034.59 4942.77 4263.33 5592.32 5912.61 5381.16 6193.35 6086.96 5233.78 5046.21 5683.26 5894.61 5139.5 5304.13 5944.09 4814.55 3527.05 4923.41 2477.07 4497.31 5384.76 5529.42 5257.12 5243.43 4537.14 5551.9 3757.34 6415.61 4687.64 4419.71 5037.06 3838.47 4541.8 5175.29 6235.57 5412.31 3087.09 6934.37 6113.95 4050.08 5452.42 5328.22 6853.85 2395.5 5511.88 4512.11 5486.68 5683.61 3836.45 5100.25 5022.28 5197.52 5178.99 5383.07 4591.87 5013.42 3838.56 4247.15 6552.22 5651.07 6248.81 5273.35 5234.29 5313.66 2651.49 4645.58 5512.23 5275.32 4898.94 5196.0 4613.31 4973.78 4733.04 6119.09 5788.66 5091.68 7531.29 5069.25 5048.89 3161.47 3991.03 6390.78 7435.25 6826.57 4788.87 4495.87 6022.72 5498.32 5527.33 5346.27 5402.21 4989.09 2845.98 4880.14 5289.52 4982.31 3848.54 5941.4 6510.17 5742.65 4402.67 4470.61 5565.13 4384.88 6887.27 3701.27 5653.9 4806.34 5612.21 4929.14 5945.08 3979.54 3306.14 5490.58 5833.06 4863.79 3830.46 6031.67 4689.15 6138.12 4428.78 5409.66 4345.67 4765.72 4642.66 4752.14 5329.59 4888.12 4950.97 5512.16 3197.63 5842.56 5887.15 7480.41 3423.15 4890.5 4488.85 3981.07 3731.84 4901.07 5186.3 3436.15 3497.9 4151.76 5941.61 4020.4 5782.48 3493.47 6248.6 5443.58 4558.46 5805.86 6894.26 4470.4 4986.51 5339.38 6169.11 5615.35 4027.09 4790.78 6422.84 4502.18 5379.09 4602.85 4962.77 5872.05 4853.02 4091.8 5181.4 5670.2 5985.29 4247.23 4178.15 4268.65 4694.83 5509.42 4354.08 4256.43 5936.36 4520.62 3903.75 4755.47 5935.03 5475.8 5314.69 4249.46 5965.81 3702.37 5660.85 4643.31 2330.66 4177.19 6917.52 3587.05 6229.37 6718.19 5282.91 4307.48 4425.84 7256.35 5331.02 4800.69 4871.96 4863.23 3555.86 6386.78 4631.83 4996.99 6081.14 6008.49 4220.46 4287.53 5128.57 6000.7 3169.67 4968.03 6710.88 5395.14 4702.06 3967.48 6213.04 3685.13 4655.16 5251.4 3867.19 5857.79 4039.91 5276.7 5036.58 6119.63 5411.02 4752.9 4287.16 4863.96 5199.44 5191.08 5203.08 4435.51 5374.07 5163.77 4588.7 3766.55 4579.69 3554.48 6496.52 5005.85 4216.17 6484.17 4721.02 4596.75 4254.37 4933.65 4031.78 6098.1 5708.99 4049.02 5346.68 5311.03 5255.12 4611.53 4285.66 4896.11 5172.53 5801.99 5210.48 7552.94 6259.23 5323.3 5088.44 4998.21 4711.62 4662.56 4114.24 5349.31 4649.22 5394.55 5094.52 4946.74 2682.24 5928.32 5229.48 5475.7 4485.99 4016.18 5127.16 5435.74 4244.99 6050.81 5543.46 6185.89 3997.96 4750.17 3460.94 3990.25 3691.0 3758.07 4752.51 4236.14 4407.87 5282.51 4460.92 3797.33 5945.89 4105.55 4340.76 6566.1 6065.22 4221.28 4456.39 4896.39 3633.79 5421.53 5480.83 4607.85 6070.3 5233.29 4312.56 5604.21 5204.04 3361.92 4750.58 6667.68 5235.11 6622.11 5211.38 4590.55 6790.73 5920.32 4255.85 5097.69 3988.3 6543.13 5149.72 5464.25 5301.47 4617.55 5424.88 4062.5 5415.85 5683.95 6027.62 5010.2 6123.03 5966.61 5711.11 4575.94 4938.72 3374.08 3546.71 5768.57 5564.23 5950.04 5687.85 4231.83 2435.33 6401.43 5296.29 5020.71 2681.29 5094.48 3872.61 4238.4 4135.62 4318.48 6132.95 5534.94 4860.33 7644.38 4051.34 6101.92 3627.55 6239.84 4635.6 4256.67 3457.48 5166.79 3931.07 2976.22 3405.98 5417.15 3688.16 4681.72 4945.39 5996.33 3950.63 5415.19 4612.62 3619.07 5526.75 4275.57 4467.04 6385.23 5327.45 2983.99 5560.26 2614.4 6363.92 6205.93 4439.35 4923.24 5830.72 6184.4 3828.81 4373.45 4082.57 5733.62 5169.9 3004.16 4767.78 4042.28 5235.17 4421.12 4779.5 5254.49 4303.19 5514.84 3914.2 5937.08 4135.08 5620.74 4778.82 4612.06 5467.84 5053.95 5926.11 5767.9 5089.62 5869.4 4741.26 3701.16 4186.6 5895.77 4732.09 6136.49 4356.25 4216.95 5776.96 5742.74 5486.48 4244.21 4947.24 3645.12 6200.54 5148.58 4199.45 8659.64 5469.13 4233.8 5765.42 4997.83 4893.49 5325.44 5021.88 5956.65 4498.25 4188.87 3735.24 6574.95 4074.48 4558.47 5997.88 5839.71 5576.92 6408.83 5266.22 3930.79 5226.97 3685.13 6004.68 3312.06 3361.26 6799.4 5865.39 4427.28 6079.11 6430.39 7440.72 3949.6 5703.6 6326.18 5661.62 6631.19 6648.68 4713.74 5626.61 5817.25 4084.49 5061.98 6632.99 4537.6 4419.61 7177.44 4563.46 5309.98 6553.94 5255.18 5460.65 5652.0 5463.41 5225.33 4929.75 4435.36 6045.22 6649.96 5134.39 3532.3 5784.3 5769.98 4256.57 5442.32 6088.68 2221.99 4643.56 4863.01 5356.79 5657.36 6124.08 3619.79 5029.47 6306.21 5266.01 5253.37 2040.66 7016.27 6515.8 3876.21 3685.65 4916.22 6022.7 4940.84 5750.07 4809.67 4757.74 6045.67 4209.49 3946.28 3821.94 5439.9 5367.73 3875.05 3540.11 3456.47 4652.01 5421.64 7234.66 6599.66 4055.54 4886.12 6419.12 4976.12 6098.95 5453.98 3991.42 4388.63 5102.75 4200.09 4597.29 5931.77 5151.21 6333.29 4477.04 5731.57 5703.74 5662.55 5737.92 5365.24 4360.23 4004.35 4763.96 5754.18 5180.76 3418.99 4480.95 5278.36 4409.63 5521.25 3661.9 3082.32 5370.85 5949.46 3658.37 3178.54 4765.02 5376.71 4448.13 5070.29 4807.28 4867.08 4266.03 5280.69 4220.03 6923.84 5407.78 5449.46 6179.96 6113.54 5147.36 4662.43 6260.79 3963.76 5528.53 6799.88 3062.43 5726.66 5426.78 2967.38 4159.35 6477.91 4237.98 6439.37 4614.3 5580.92 5973.33 5067.46 3583.21 2511.46 3580.58 4011.37 2775.69 4785.25 6519.43 5876.64 5424.46 4857.84 2978.76 4908.49 4962.21 4858.44 5884.9 4673.35 5689.26 4992.42 5297.19 4351.38 4833.46 5933.7 7248.4 5280.12 5984.81 3498.16 4409.27 4640.06 5471.74 3548.39 3673.28 4858.51 4207.54 5625.65 4301.61 6107.89 4817.16 5660.55 5148.08 4834.87 5760.22 3672.21 5938.17 4795.43 5398.64 5097.95 6817.57 4693.52 3614.96 3886.68 6853.04 4745.43 5831.96 4747.55 3056.7 3755.95 6234.32 5293.51 4586.19 4446.06 3450.93 5008.63 5132.68 6595.03 4993.35 4558.15 6218.95 5222.16 5107.23 5136.08 3776.94 5558.68 4010.57 5629.39 2684.03 6157.04 4768.61 2261.36 5075.55 4522.21 5506.19 6719.94 4950.67 5227.59 6166.29 5453.6 5703.07 5294.77 4709.05 4630.82 4043.66 4813.08 5860.67 4540.86 5990.52 4835.83 5604.35 6316.56 4332.87 3091.67 6420.81 4081.97 4715.58 5401.99 5151.52 5369.08 4347.74 5291.9 4009.62 2081.58 6505.78 5461.55 6449.64 6464.8 4684.44 4749.59 3468.42 3809.69 5571.72 4771.13 3208.96 7051.9 4184.23 5550.75 6226.14 5466.33 4444.97 3000.29 5721.05 4247.69 4514.39 4588.99 4321.21 4344.34 4928.27 3583.49 5052.84 3375.28 4366.74 5297.16 3184.64 5206.33 4446.84 5530.49 5653.03 3718.69 4514.79 2216.82 4509.89 6752.75 5269.38 5607.3 5108.06 3573.73 2928.82 4222.4 4000.43 3420.08 4568.41 4912.04 4539.07 5464.68 5591.76 4585.31 6625.18 5323.91 4270.74 5097.45 6293.89 2761.07 5737.75 4983.39 5366.52 4690.55 5533.72 5533.42 4802.32 3678.08 4599.38 5246.47 4187.31 6191.29 3240.51 7422.36 5161.01 4298.15 4628.4 5832.37 6051.83 4642.93 5409.63 4263.16 3973.12 3077.84 6024.75 6109.49 5567.93 5332.65 3764.1 6451.33 5413.31 6400.08 4743.59 5208.14 3317.83 4450.7 3763.05 5092.24 3101.75 4518.04 4766.06 4874.18 5435.19 3298.2 4270.15 6865.76 4093.99 3940.49 4406.05 4680.94 5799.69 5876.72 5236.43 5285.07 4608.41 4144.57 4187.94 5980.59 6834.41 3796.15 4801.8 7216.98 5271.02 4209.31 5718.28 6242.79 5950.45 5713.03 5849.65 5134.67 4165.21 4215.0 4936.96 4481.76 5452.78 5065.26 4304.41 6192.0 4940.28 5885.28 3004.34 3022.6 4811.76 4914.45 4698.87 4661.03 3624.7 4691.91 5262.35 4475.83 2685.81 4510.8 5889.35 5010.04 4394.56 4570.98 4275.07 5825.38 4185.61 4047.87 5742.47 3778.02 6552.21 5417.8 5146.37 7132.12 4836.16 5518.57 5151.11 5463.48 5730.33 5545.46 4527.99 4376.7 5190.61 8325.01 3764.06 4440.81 5941.9 5434.47 6642.76 5829.22 4497.78 4243.79 5987.42 5433.65 4442.22 4008.15 4887.76 4669.06 3012.99 4811.32 4286.49 6184.88 5829.32 4396.25 5551.95 5549.49 3918.87 5423.42 2275.45 6605.86 5012.5 4383.56 3562.79 7093.13 4953.1 5818.95 3604.14 4452.54 5089.1 2711.19 5828.35 4028.32 4099.92 4884.59 3858.06 4680.14 4511.7 4083.79 5263.27 6300.92 5021.77 5599.29 6038.68 4807.4 7013.17 3805.67 4601.74 6506.86 5088.57 5580.34 3852.6 5775.31 4706.5 4603.5 4647.67 5375.12 4356.36 4892.44 5578.94 7610.49 4286.17 6579.31 5323.55 5375.1 4172.6 5313.12 5351.56 5160.59 3984.88 4732.09 4320.42 4255.34 5064.79 5480.3 7509.24 4146.81 5896.26 5388.78 6101.13 4573.72 5099.21 4917.99 5636.4 4367.78 4350.12 5227.02 5670.0 4232.16 5300.96 4344.51 5680.94 3781.77 5581.55 5193.01 4543.1 3474.5 6550.44 3860.83 5732.27 4523.39 5278.56 5146.37 6917.62 4013.38 5631.14 4343.78 5811.18 4909.65 6523.86 7693.4 4326.48 4437.07 3449.37 5491.9 6405.0 4659.16 5789.55 4633.05 4901.2 5711.62 4990.79 4798.17 5166.79 6479.39 2895.63 4516.53 4122.92 4997.91 5079.22 5381.54 5810.77 4714.83 5474.15 7519.2 6355.68 4478.6 3953.55 4304.63 4469.54 4314.56 4173.54 3928.53 5606.51 5046.12 3834.47 6349.67 4590.01 6101.86 4227.41 5993.0 4803.57 5966.42 4110.59 3332.49 5354.66 4214.44 5378.23 4787.97 3746.36 6789.23 3989.7 4777.03 3684.56 4246.61 6028.09 5452.36 3804.5 6486.37 5498.42 5318.53 3344.57 5220.76 4281.98 7165.9 5344.83 7046.11 3427.63 4863.97 6342.48 5756.75 4587.67 5599.7 4163.74 6969.28 3665.95 5698.96 4095.75 3603.51 4298.45 5222.51 6609.84 5135.96 3834.43 5658.37 4707.06 6074.94 5491.37 4250.88 3783.54 6348.03 3475.67 4792.39 7038.89 3863.67 4814.12 5067.56 6137.8 2735.53 5263.3 3352.35 5116.6 3747.03 2783.85 4356.49 4526.81 3994.07 4219.94 5907.46 4264.91 5399.29 4909.31 5971.22 6522.59 6602.43 3568.28 5425.98 5996.66 4405.42 2995.67 3598.08 4599.81 5698.23 7300.58 3608.06 6633.61 5217.95 4867.7 5484.36 4277.24 4063.9 5291.05 5161.1 4619.2 5166.41 5740.65 5067.56 6329.53 4139.3 6541.45 4750.49 5078.31 5391.48 4923.43 5131.15 4847.14 3950.27 5116.66 3566.79 5374.67 4981.43 4215.2 5069.89 4157.29 6813.72 5327.75 4609.02 4896.65 4638.18 4196.37 6448.66 4453.97 6945.98 5138.2 5783.48 4449.98 4504.35 4771.65 4840.44 5093.82 5951.81 3924.14 4296.69 6238.32 3319.67 6471.42 5283.8 4076.59 4428.14 5164.1 6464.15 4479.11 4972.17 6685.4 5699.53 4222.77 6332.01 5268.38 5527.23 4805.33 5980.95 6193.08 6069.3 5887.01 5168.35 5388.39 5335.47 5633.61 5048.19 6799.23 4888.27 6740.71 6487.56 4854.11 5533.19 5417.21 5583.61 6063.64 7382.3 4022.56 5522.21 3772.3 4855.01 4923.57 3340.09 2279.05 4829.35 4075.28 8137.11 5484.32 6650.77 4067.96 7104.73 2596.96 6162.3 5701.75 3272.75 4350.15 4264.54 3516.27 4263.78 4643.9 5228.75 6047.14 5009.83 5210.38 5717.8 3629.44 5003.78 3299.24 6246.56 4741.28 4061.6 2603.64 5107.0 6212.15 6502.97 4783.07 4946.23 4852.58 6083.28 5211.6 3556.79 5806.31 5456.71 3503.41 7317.04 4701.5 7001.83 5012.97 5589.37 5439.49 6918.35 4834.3 6804.79 6372.13 5369.5 5404.01 6016.19 4124.49 3230.13 5714.25 5325.96 4850.06 5016.02 7044.29 4920.21 4234.18 4049.16 7085.01 3936.95 6153.94 6836.82 3862.77 4631.99 4740.98 3185.39 5128.77 3728.18 7122.87 5797.36 4243.26 4153.84 5119.86 4592.15 5084.17 4901.44 3776.8 4998.22 5096.43 6156.21 6104.26 4653.83 6171.71 4986.71 4668.88 5027.43 5522.75 5867.64 6208.9 6059.93 5602.53 6061.63 6545.43 6760.92 4989.2 4711.04 4506.18 4824.12 4383.47 5971.21 7043.44 6412.67 4036.91 6639.64 5212.43 5454.12 6348.54 4066.57 5642.35 4206.98 5156.76 6357.47 6101.57 4891.38 5535.91 5955.86 6176.67 4533.37 4848.46 5412.24 2779.99 5887.38 4581.37 6942.34 5851.61 5478.11 5526.31 3858.17 5030.15 5089.26 2460.79 3628.89 6589.82 4438.58 5073.02 3472.91 7144.05 2970.9 6542.5 6318.23 4058.87 5174.75 5932.07 4984.46 5948.71 4793.65 