# vtk DataFile Version 2.0
Time step 4
ASCII
DATASET UNSTRUCTURED_GRID
POINTS 5000 float
2413.63 236801.0 0
8014.23 236384.0 0
12471.9 236039.0 0
16833.8 235816.0 0
22355.6 236656.0 0
27642.9 233651.0 0
33095.5 236477.0 0
38086.0 236962.0 0
42621.0 237179.0 0
47500.0 237133.0 0
52137.1 237087.0 0
57039.6 235835.0 0
62763.5 236702.0 0
67994.7 237132.0 0
72677.5 236292.0 0
77500.0 236965.0 0
82500.0 236918.0 0
87393.3 236226.0 0
92500.0 237073.0 0
97287.4 237129.0 0
101387.0 236841.0 0
106077.0 236513.0 0
111888.0 236659.0 0
117804.0 236783.0 0
123281.0 236957.0 0
128293.0 237165.0 0
133355.0 236283.0 0
138034.0 237244.0 0
142500.0 237195.0 0
147500.0 236986.0 0
152551.0 236743.0 0
157549.0 236785.0 0
162511.0 236805.0 0
167045.0 236440.0 0
171882.0 235094.0 0
177734.0 235097.0 0
182987.0 234509.0 0
187404.0 236239.0 0
192500.0 237432.0 0
196195.0 236607.0 0
201773.0 235718.0 0
207611.0 236515.0 0
212984.0 236348.0 0
218171.0 237014.0 0
222508.0 237356.0 0
225864.0 236808.0 0
230324.0 236311.0 0
235740.0 237049.0 0
241084.0 235697.0 0
252750.0 237577.0 0
278963.0 236885.0 0
297327.0 236928.0 0
362054.0 237439.0 0
372066.0 235597.0 0
377060.0 237623.0 0
388140.0 237598.0 0
394013.0 236943.0 0
403535.0 236145.0 0
408465.0 237385.0 0
432570.0 236547.0 0
446454.0 237161.0 0
477136.0 236410.0 0
485874.0 236028.0 0
491656.0 237737.0 0
497602.0 236176.0 0
5800.98 239880.0 0
10873.4 240488.0 0
28307.4 239953.0 0
57901.1 241272.0 0
87807.4 241032.0 0
108167.0 241214.0 0
157134.0 240875.0 0
166741.0 241121.0 0
172692.0 240722.0 0
178135.0 240505.0 0
183316.0 239593.0 0
188393.0 240660.0 0
198028.0 241121.0 0
213629.0 240907.0 0
226930.0 241069.0 0
246271.0 238041.0 0
259103.0 238189.0 0
256876.0 242676.0 0
263842.0 239188.0 0
268829.0 238201.0 0
274028.0 238271.0 0
271720.0 242303.0 0
276888.0 242717.0 0
282066.0 240259.0 0
286355.0 238550.0 0
291738.0 239093.0 0
298150.0 242451.0 0
303603.0 237965.0 0
307772.0 240295.0 0
312138.0 238090.0 0
317939.0 238720.0 0
323256.0 238726.0 0
327597.0 238862.0 0
332223.0 238477.0 0
337240.0 238222.0 0
341053.0 239375.0 0
345992.0 237911.0 0
343221.0 242486.0 0
350895.0 239505.0 0
355526.0 238857.0 0
361751.0 242749.0 0
368116.0 239034.0 0
373126.0 242440.0 0
382647.0 238380.0 0
378971.0 242150.0 0
388175.0 242689.0 0
399079.0 238886.0 0
402863.0 242329.0 0
408242.0 241657.0 0
412500.0 238703.0 0
417500.0 238597.0 0
422571.0 237558.0 0
422226.0 242207.0 0
427290.0 238481.0 0
433099.0 241832.0 0
437537.0 238570.0 0
442319.0 237788.0 0
443072.0 242147.0 0
447419.0 241244.0 0
450827.0 238119.0 0
451887.0 242646.0 0
455365.0 238260.0 0
460351.0 238342.0 0
465902.0 238387.0 0
471727.0 237683.0 0
481467.0 239116.0 0
486667.0 242481.0 0
496855.0 241685.0 0
2275.2 242556.0 0
6929.99 244893.0 0
16996.7 241744.0 0
22721.4 242405.0 0
34683.5 241810.0 0
40107.7 242083.0 0
44243.4 242503.0 0
48062.3 241279.0 0
47362.2 246019.0 0
52500.0 242088.0 0
62719.3 242157.0 0
67506.6 241530.0 0
72291.9 241376.0 0
77500.0 242339.0 0
82116.9 241767.0 0
82057.9 246505.0 0
92499.1 242259.0 0
97219.8 242009.0 0
97541.8 246591.0 0
102518.0 241561.0 0
107957.0 246002.0 0
112500.0 242261.0 0
117500.0 242366.0 0
122500.0 242271.0 0
125871.0 246169.0 0
127690.0 241772.0 0
132498.0 241796.0 0
137520.0 242033.0 0
142832.0 241519.0 0
141125.0 245717.0 0
147138.0 241691.0 0
152146.0 241483.0 0
156451.0 245442.0 0
161550.0 241632.0 0
170019.0 245808.0 0
182253.0 244795.0 0
193337.0 241480.0 0
194411.0 246439.0 0
203780.0 241398.0 0
200113.0 246090.0 0
209210.0 241769.0 0
213317.0 245723.0 0
217680.0 242108.0 0
222112.0 242213.0 0
227237.0 246082.0 0
232193.0 241588.0 0
237706.0 242269.0 0
243318.0 242440.0 0
248206.0 242121.0 0
252279.0 244086.0 0
257611.0 247395.0 0
262317.0 243334.0 0
267375.0 243110.0 0
267369.0 247573.0 0
272921.0 247601.0 0
279865.0 246649.0 0
282777.0 243963.0 0
287500.0 243641.0 0
292615.0 243654.0 0
296798.0 247535.0 0
302970.0 243618.0 0
307492.0 243678.0 0
312501.0 243835.0 0
317500.0 243597.0 0
322503.0 243307.0 0
322471.0 247308.0 0
327500.0 243621.0 0
332500.0 243693.0 0
337617.0 243226.0 0
341456.0 246738.0 0
346851.0 247541.0 0
347628.0 243132.0 0
352592.0 243524.0 0
356161.0 247185.0 0
357914.0 243328.0 0
361383.0 247432.0 0
365435.0 242820.0 0
366676.0 246941.0 0
382079.0 243475.0 0
384487.0 246765.0 0
392488.0 247849.0 0
393355.0 242976.0 0
397941.0 243339.0 0
397266.0 247730.0 0
412729.0 242895.0 0
409186.0 247271.0 0
417399.0 243166.0 0
418968.0 247864.0 0
427691.0 243516.0 0
424080.0 247040.0 0
432210.0 247493.0 0
437500.0 243634.0 0
442202.0 247371.0 0
448070.0 246311.0 0
457088.0 243076.0 0
462466.0 243839.0 0
466748.0 242937.0 0
470264.0 244240.0 0
472460.0 247522.0 0
475223.0 242993.0 0
480869.0 244380.0 0
492146.0 244634.0 0
2238.43 247667.0 0
7999.42 252020.0 0
12046.4 246646.0 0
13238.0 252683.0 0
16505.0 247036.0 0
17538.4 252201.0 0
20667.0 246670.0 0
22210.0 252545.0 0
26896.3 246623.0 0
32561.5 246962.0 0
31959.2 252682.0 0
37975.0 246635.0 0
42688.0 246883.0 0
49058.8 252290.0 0
51648.7 247786.0 0
56337.2 246836.0 0
61933.7 246964.0 0
67501.5 246421.0 0
73526.3 246930.0 0
78316.4 247514.0 0
77026.6 252860.0 0
82097.6 253113.0 0
87064.4 246581.0 0
92527.1 246719.0 0
102639.0 247251.0 0
107677.0 252874.0 0
112500.0 247058.0 0
116782.0 247052.0 0
113035.0 252934.0 0
120896.0 246690.0 0
118061.0 252965.0 0
123344.0 252279.0 0
131266.0 248009.0 0
136525.0 247554.0 0
137678.0 253115.0 0
146460.0 246599.0 0
147894.0 253005.0 0
152047.0 249448.0 0
156912.0 252595.0 0
161972.0 247129.0 0
166801.0 250652.0 0
176324.0 246314.0 0
182321.0 251552.0 0
188221.0 246650.0 0
197151.0 252864.0 0
202962.0 252867.0 0
204277.0 247404.0 0
208050.0 246616.0 0
217688.0 247297.0 0
214438.0 252684.0 0
222508.0 246718.0 0
222388.0 252430.0 0
232566.0 246995.0 0
237517.0 247257.0 0
237426.0 251976.0 0
242008.0 247411.0 0
247171.0 246365.0 0
252112.0 249054.0 0
256129.0 252266.0 0
262595.0 248115.0 0
260592.0 252057.0 0
266412.0 252280.0 0
278326.0 252143.0 0
283576.0 248875.0 0
287235.0 248953.0 0
288603.0 252231.0 0
291105.0 248105.0 0
302249.0 248864.0 0
307677.0 248110.0 0
313183.0 249137.0 0
318191.0 248391.0 0
321165.0 252565.0 0
326899.0 248821.0 0
330081.0 252885.0 0
331933.0 248805.0 0
336591.0 247926.0 0
339957.0 252158.0 0
351956.0 248375.0 0
357560.0 251107.0 0
366960.0 251616.0 0
371331.0 248568.0 0
377867.0 248078.0 0
382851.0 252228.0 0
388537.0 249854.0 0
402852.0 248532.0 0
408004.0 252564.0 0
414376.0 249649.0 0
427754.0 249798.0 0
437253.0 248426.0 0
437514.0 252609.0 0
442231.0 252963.0 0
446910.0 251458.0 0
453877.0 248126.0 0
451140.0 252453.0 0
458762.0 248768.0 0
462817.0 248420.0 0
467500.0 248746.0 0
472915.0 252422.0 0
477840.0 248272.0 0
482746.0 249027.0 0
487611.0 250097.0 0
491608.0 248692.0 0
492149.0 252469.0 0
496655.0 248253.0 0
2182.12 253644.0 0
11953.5 256514.0 0
17152.9 257390.0 0
23066.4 257894.0 0
26827.3 254320.0 0
29863.6 257259.0 0
34495.7 258090.0 0
37474.1 253338.0 0
39374.5 257523.0 0
43142.3 253363.0 0
47884.1 257398.0 0
53811.5 253709.0 0
59002.9 253298.0 0
56996.6 257688.0 0
63407.3 253091.0 0
62980.8 257875.0 0
67904.0 253837.0 0
72459.3 253569.0 0
72996.5 257666.0 0
77912.4 258077.0 0
83201.6 258098.0 0
87292.6 253360.0 0
92240.1 253775.0 0
97725.4 253468.0 0
102740.0 254797.0 0
111443.0 257595.0 0
122213.0 257509.0 0
127500.0 253741.0 0
126999.0 258248.0 0
132579.0 254280.0 0
136622.0 257690.0 0
142510.0 253418.0 0
147015.0 257305.0 0
153278.0 254606.0 0
157928.0 258148.0 0
160577.0 253690.0 0
164608.0 254296.0 0
167020.0 257327.0 0
171024.0 253380.0 0
177243.0 254616.0 0
186611.0 254122.0 0
191623.0 253728.0 0
193552.0 257866.0 0
203102.0 257963.0 0
208747.0 254327.0 0
218838.0 253750.0 0
216411.0 257293.0 0
221249.0 257414.0 0
227870.0 252963.0 0
233894.0 253269.0 0
232080.0 258002.0 0
237969.0 256679.0 0
242355.0 253646.0 0
242994.0 258102.0 0
246866.0 253042.0 0
251711.0 254225.0 0
257822.0 257498.0 0
262769.0 255692.0 0
267589.0 258161.0 0
271804.0 253953.0 0
284257.0 253842.0 0
288751.0 257548.0 0
292855.0 253851.0 0
298805.0 253894.0 0
303875.0 253959.0 0
302639.0 258266.0 0
307500.0 253785.0 0
312305.0 253630.0 0
316371.0 253259.0 0
317170.0 257674.0 0
325972.0 254035.0 0
322521.0 258127.0 0
331114.0 258199.0 0
334592.0 254744.0 0
341474.0 257602.0 0
346202.0 253796.0 0
352930.0 253939.0 0
357912.0 257481.0 0
361921.0 253394.0 0
367174.0 256522.0 0
371831.0 254196.0 0
377774.0 255272.0 0
387340.0 253958.0 0
392976.0 254009.0 0
399431.0 253564.0 0
403146.0 257366.0 0
404203.0 253339.0 0
412313.0 254078.0 0
408312.0 257395.0 0
416867.0 253460.0 0
414340.0 257779.0 0
421355.0 254042.0 0
425841.0 253484.0 0
427441.0 257579.0 0
431200.0 253698.0 0
436043.0 257459.0 0
448087.0 257118.0 0
455893.0 253658.0 0
461655.0 253337.0 0
467396.0 253581.0 0
473353.0 257741.0 0
479143.0 253756.0 0
484988.0 254232.0 0
489148.0 254845.0 0
496774.0 254872.0 0
1501.06 258372.0 0
2721.64 262422.0 0
7148.55 258319.0 0
12567.1 261025.0 0
28486.8 261364.0 0
38768.2 262357.0 0
43152.1 259593.0 0
52693.2 259278.0 0
59437.0 262728.0 0
68287.0 259004.0 0
71989.8 261586.0 0
76234.1 263076.0 0
88003.3 258238.0 0
88098.5 263323.0 0
92500.0 258649.0 0
97515.5 258902.0 0
101510.0 258694.0 0
101690.0 263394.0 0
105914.0 258501.0 0
111192.0 262439.0 0
116767.0 258272.0 0
115519.0 262977.0 0
131308.0 258720.0 0
133433.0 263142.0 0
142221.0 259109.0 0
151806.0 259217.0 0
148479.0 263365.0 0
161441.0 262608.0 0
163549.0 258718.0 0
166824.0 262758.0 0
170931.0 259379.0 0
176686.0 260876.0 0
182808.0 258518.0 0
189058.0 258576.0 0
192173.0 263138.0 0
198158.0 258685.0 0
202492.0 262427.0 0
207375.0 259792.0 0
212124.0 258564.0 0
216363.0 263111.0 0
222659.0 263104.0 0
226332.0 259268.0 0
236294.0 261652.0 0
248183.0 258258.0 0
253007.0 258515.0 0
251063.0 262680.0 0
262889.0 261242.0 0
272674.0 259835.0 0
278409.0 258799.0 0
283513.0 258416.0 0
282123.0 262354.0 0
293390.0 258562.0 0
293001.0 262949.0 0
297412.0 259909.0 0
301849.0 262114.0 0
307240.0 258622.0 0
306290.0 263582.0 0
[...]
POINT_DATA 5000
SCALARS Radius float 1
LOOKUP_TABLE default
4796.58 3979.26 3471.03 5253.55 5820.48 5782.6 4862.21 5113.21 3929.19 4107.03 4478.15 5379.87 5925.6 4501.51 4792.73 4736.58 4931.38 3485.26 4329.05 4151.94 4049.23 5337.48 6124.89 5708.81 5252.48 4780.03 5495.39 3996.0 3856.1 4665.12 3383.4 4133.88 4834.9 3850.77 6044.04 5415.48 5120.0 3863.18 2356.98 4998.37 6182.6 5492.18 5258.36 5061.3 3642.12 3163.97 5812.43 5122.66 5906.14 7513.1 5580.89 6810.52 7613.27 5529.52 5255.32 5096.78 6756.95 6324.23 3843.58 5191.63 4216.92 4861.06 5320.28 6739.08 4797.52 4298.67 5960.66 7034.11 5681.38 6082.81 4929.8 4094.62 5546.39 5325.36 5484.83 5085.53 5351.6 4715.55 3951.75 5542.27 5484.19 5254.28 4688.68 4436.4 5733.48 4672.91 4182.53 5903.42 3588.44 5645.7 5176.86 4366.19 5840.26 3672.51 6110.27 5561.06 5073.35 3615.22 5670.04 4380.59 3589.27 6716.79 3997.1 3607.45 5759.91 3038.33 4951.03 7199.21 6037.08 4523.7 5091.39 4129.43 6142.94 4727.24 3320.52 4194.5 4270.53 5082.47 5344.25 5445.87 4593.7 4150.99 4704.72 4177.94 4742.68 4571.7 4344.58 5634.83 5495.84 6268.1 5374.51 7042.12 6326.39 4569.12 5873.69 6608.73 5011.84 6261.42 4502.5 3771.48 4043.57 5499.11 4271.69 4138.42 3708.04 5513.6 3240.09 4556.36 4901.41 3191.99 4685.34 4382.74 5601.05 4651.28 3586.91 3103.0 3554.9 5481.78 4015.92 5542.21 4487.31 3936.02 5043.05 4044.71 5980.74 5109.54 4927.02 5945.65 5538.89 4730.36 5416.38 5867.73 6059.59 5013.56 5701.86 4499.64 4375.68 4468.59 5054.98 6030.06 5170.02 3557.27 4927.31 4862.64 4402.52 4517.56 4432.58 6684.56 3968.64 3955.56 3761.32 4118.05 6166.5 5553.16 2938.66 4940.78 4231.61 4008.92 4003.05 3942.53 3379.84 4827.82 5227.21 5697.78 3260.67 5123.52 4091.31 4392.68 6372.62 4333.2 4295.38 2240.39 5923.5 4612.68 5293.9 3912.37 4973.83 4602.25 6691.39 4790.08 5135.69 4763.45 5344.0 6045.46 3815.26 5908.1 6048.7 5896.46 5022.8 3784.5 3780.23 4166.08 6481.79 5224.12 4819.73 4471.58 6098.14 4962.09 4472.17 3999.48 4203.26 4359.62 5188.81 6946.21 2586.12 6057.22 5433.8 4011.77 4527.08 3633.87 5922.5 5198.77 5987.17 6013.14 2765.2 5011.31 5138.31 5110.37 5664.98 5927.43 6355.42 4384.42 3693.63 4362.19 4516.43 5690.56 4948.92 5637.59 4937.14 3307.12 5816.2 4002.16 5693.81 4174.52 6483.19 3829.13 6759.9 5418.62 7021.47 5740.68 5926.61 2720.68 4955.55 3563.63 5836.15 4238.81 4345.55 5885.03 2837.58 3871.88 5325.02 5200.76 5017.13 5279.39 5185.34 3673.74 5205.43 7447.37 4688.67 2635.86 4385.06 5292.64 5065.13 5936.02 5305.17 4861.08 5399.73 5390.22 3888.21 4712.33 4805.87 6038.78 4667.36 4254.17 5090.24 5615.42 7565.34 5530.87 4281.49 6342.25 4187.56 4840.84 4020.32 4245.72 4156.38 5316.75 4541.21 6133.92 4164.68 3719.84 4178.4 3095.48 5762.59 4123.6 4850.14 5163.55 3382.7 3954.91 6817.32 4319.79 3637.61 6222.42 5654.31 4730.41 3745.84 5690.26 5062.71 4156.2 6125.34 5965.78 5347.48 4850.01 4810.12 3970.25 5643.58 5147.67 3979.82 4292.06 5577.04 5006.58 5264.06 4659.59 6327.9 4048.37 5492.26 5762.84 3115.91 3937.74 4493.48 6084.86 5924.89 4778.34 4138.16 6894.71 3486.22 4684.5 3091.3 6230.49 6458.82 4601.27 5493.32 3641.64 4277.89 6051.14 3261.21 4195.44 5539.32 6704.06 3653.41 6496.85 5600.93 3856.01 4874.39 5246.2 4390.66 5728.85 4827.23 4911.47 6116.18 4924.6 6257.19 4733.32 7184.19 2899.43 2812.98 2924.37 3867.67 4290.3 4695.45 4660.72 6052.7 3921.18 5891.05 5308.1 6902.81 6644.76 5655.21 5629.19 4786.6 5740.84 6445.94 4310.18 7134.64 5978.9 4716.19 3629.62 4997.27 5514.76 4301.06 3456.98 4877.67 4290.14 3066.13 6562.18 6006.16 7055.53 5669.65 5934.22 5624.49 4970.88 7092.87 4666.81 3703.1 6471.55 2965.01 5499.39 6643.85 5501.93 4938.74 5607.14 4497.59 4374.35 6396.74 5215.05 3821.72 4986.77 4602.86 5586.81 3688.8 4548.16 3369.23 4551.24 5449.18 4220.88 5244.78 4515.71 4749.8 5082.6 5478.92 5551.36 5094.44 4467.94 4414.54 4850.81 5789.98 6138.47 7054.71 5489.43 5573.7 5747.75 4727.62 5054.25 4796.33 7325.81 5280.17 5360.19 4794.96 5541.59 4124.71 5083.08 6337.56 5803.39 5863.59 4381.97 4024.3 3255.82 5555.28 5242.73 4737.14 4065.69 4686.65 5603.15 5556.96 3798.62 6392.01 3666.57 4907.89 4937.02 4073.93 6043.3 4645.41 5952.75 4433.59 4320.28 6122.55 5542.14 4218.06 2739.94 4931.53 5480.13 6308.71 3323.28 6695.82 6405.76 3498.2 5105.16 5448.61 4302.5 4827.33 6009.88 5013.67 5826.04 5339.78 4143.78 4538.95 4763.66 4636.5 4940.42 5923.4 5085.71 6116.33 5644.82 6343.14 5463.38 5945.21 5750.71 5696.88 4831.47 3923.03 4643.85 5975.63 4004.04 5252.34 4138.46 4274.61 2775.04 2965.79 6898.19 6035.6 6318.18 4481.53 3948.17 5330.45 4621.75 4581.13 5358.59 3610.4 6387.01 5367.52 6519.71 3092.35 6640.13 5210.03 5810.84 4230.54 5351.39 3748.24 6142.37 4655.49 4933.21 5375.47 6038.14 2540.31 6029.66 5527.54 5697.4 6038.2 4270.95 4005.44 4055.8 5206.78 6425.26 5143.58 6186.19 4839.34 2980.99 6834.49 5525.39 4455.12 3998.5 5938.34 5380.13 6394.38 5118.27 5169.36 5932.23 5834.74 5788.23 5581.75 3599.45 6730.19 4907.06 5489.34 3735.44 5163.9 6332.36 6155.31 4223.33 5911.67 5709.62 5835.78 5794.24 4127.74 4678.38 3942.07 7443.72 5050.65 3937.08 5260.34 5206.48 5513.57 5729.23 5226.0 3365.82 5724.64 5965.15 4780.2 6090.91 4946.42 5019.93 5081.78 6263.44 5774.97 5462.21 6313.06 5470.77 3474.39 6062.05 4289.17 5564.02 6072.45 4410.55 5137.34 5423.0 3856.59 4219.07 5413.79 6202.55 4322.15 5025.39 4714.54 3629.96 5478.47 3320.11 6022.17 6061.47 6163.38 4566.18 4723.12 5120.49 5201.36 5262.61 6302.8 5409.61 5094.81 5972.06 5555.88 6732.43 5028.96 3866.16 6362.12 4484.76 3778.1 4840.01 5152.36 4511.82 5611.2 7933.0 5173.87 4894.16 5711.87 3372.79 4941.22 5791.61 3369.13 4669.66 4479.66 4808.52 5367.2 3043.85 5461.13 4726.76 5839.13 5495.68 4863.72 5002.48 5708.14 5537.72 3920.42 8332.24 4553.56 5329.64 6049.55 5991.09 2476.04 5133.97 6600.94 5371.02 6155.1 4709.35 6586.45 4373.3 4750.78 5029.78 4163.5 4888.6 5078.86 5100.1 4918.77 3561.29 4371.99 4963.34 4219.78 3295.83 3885.86 4459.28 4260.92 4479.94 6250.23 5960.56 4118.84 4020.95 5862.86 3493.7 6470.3 4200.03 6939.12 5082.74 6915.83 5092.37 6444.77 7099.43 5526.14 4287.63 5198.29 5077.33 4746.52 3689.45 5572.95 6338.89 5584.06 7111.16 5893.5 4547.19 5030.91 5119.37 3982.23 4583.31 4503.89 5806.08 3459.9 4997.27 4853.39 4964.09 4093.08 4809.42 5024.9 4306.53 5659.17 5713.22 4312.67 5861.71 4359.04 3183.98 3794.63 5017.78 4524.28 6175.81 4727.24 6677.09 5826.64 4220.65 6820.42 4816.2 6321.41 4896.52 4089.76 4751.02 3192.41 5184.56 5282.64 4715.72 3315.57 5804.71 5046.33 4764.96 5607.24 4242.52 5053.92 6352.26 3847.38 3057.03 3818.59 4143.08 7500.97 6623.85 5228.18 4262.82 5102.36 5065.11 4342.9 5069.84 4051.44 4050.9 4978.31 4241.89 5054.74 5941.72 4656.78 5126.91 4788.58 5131.24 5196.67 5876.71 6262.72 3664.11 6515.84 2990.77 5882.65 4739.14 5187.7 4188.3 6261.75 5235.29 4255.31 5453.3 6413.02 4863.27 3492.19 4584.5 5122.63 6049.79 5374.98 4719.7 4735.33 4406.4 5411.85 4844.57 4027.46 6314.07 5776.37 5315.4 6449.45 3975.31 4044.45 3824.16 5125.78 5344.43 3868.18 4373.47 5045.38 6723.16 5372.61 3686.21 3817.13 5507.24 5023.15 6851.54 3813.22 5570.3 4336.42 5243.29 7589.94 4449.22 5543.27 4717.05 5856.11 5287.2 6135.57 4109.88 5998.38 5013.13 5423.8 4270.24 3417.33 4989.15 4926.42 4164.13 5015.69 4642.34 4947.52 4305.57 6959.81 4829.35 5201.67 3791.79 4424.7 4754.05 5526.55 6084.93 5215.15 4987.87 3697.96 4739.42 5538.93 5020.12 5727.3 2631.9 5281.28 5356.51 4277.88 4668.71 4087.15 4758.21 7228.46 3948.23 5978.82 5787.31 3927.99 5868.82 4948.98 4099.77 5227.52 4092.24 4981.9 4537.32 5163.02 7144.24 4906.82 3600.43 5004.23 6496.67 5474.8 6607.87 5117.47 4721.32 4925.63 3163.78 3293.56 5274.14 4434.19 4903.82 5746.28 4623.61 4082.47 5511.6 5177.64 6134.99 4094.73 4407.9 4440.57 5548.29 4703.08 2315.64 6345.13 5274.19 5226.56 5516.95 5313.22 4413.85 3999.94 4470.98 4864.22 4516.28 3921.08 4190.31 3627.82 5678.96 5262.19 4244.9 6070.58 5350.88 5130.91 5402.24 6480.17 6445.22 4377.07 5101.59 3844.9 3963.86 3848.93 4306.11 5935.47 3130.65 5903.66 5628.24 5004.67 5365.89 3327.49 5992.26 4234.94 3960.8 4562.29 4980.85 5080.66 5110.45 5208.32 5248.77 4083.97 4520.1 4607.02 5153.74 5874.89 3895.51 4528.09 4293.03 5813.4 4389.21 4128.98 4925.44 6246.22 4951.47 5246.61 4307.28 4100.38 5344.77 4723.48 5097.87 4899.11 4278.07 4745.45 7267.18 6255.18 5269.18 4406.1 6362.14 6719.88 5080.18 5266.5 4454.63 4523.88 3279.1 4066.38 4403.98 4560.84 4414.48 4729.43 5776.57 4562.74 5598.74 5687.83 7493.3 6442.69 6320.71 4648.04 3464.83 6413.11 4305.16 5092.28 4965.89 5659.95 4152.85 2908.7 4453.64 4338.08 4517.73 4378.3 5469.47 5660.16 4989.56 4718.54 2588.37 6736.03 6235.57 6766.43 5916.16 4390.41 5599.49 4097.57 3905.51 5017.5 5563.79 6171.13 3901.8 5759.46 5083.41 7055.42 6048.86 4285.32 5490.43 6034.41 5452.83 4959.34 4948.5 4519.22 4527.02 4564.34 3695.36 4871.44 5076.35 6020.48 6375.99 3402.32 5200.05 4528.49 5419.37 4466.03 4511.54 5070.39 4923.9 5714.58 3329.99 3947.47 3296.27 4713.25 4204.84 6243.0 6673.96 4165.81 3556.85 5441.96 6291.51 5174.89 5882.89 5370.52 4188.32 4652.29 5774.81 3746.31 5027.98 5346.27 6475.1 4969.21 2691.29 6256.02 5320.92 4305.43 5450.44 5034.59 4942.77 4263.33 5592.32 5381.16 5912.61 6193.35 6086.96 5233.78 5046.21 5683.26 5894.61 5139.5 3979.54 5944.09 4814.55 3527.05 5698.77 2477.07 4497.31 5529.42 5257.12 5243.43 4537.14 5551.9 3757.34 6415.61 4687.64 4419.71 5037.06 3838.47 4541.8 5175.29 3623.87 5412.31 3087.09 6934.37 6113.95 4050.08 5452.42 5328.22 6853.85 3497.9 5511.88 2395.5 4512.11 5782.48 5486.68 3836.45 5683.61 5100.25 5022.28 5197.52 5178.99 5383.07 4591.87 4531.14 5013.42 3838.56 4247.15 6552.22 5651.07 6248.81 5273.35 5234.29 5313.66 4645.58 2651.49 5512.23 5275.32 5409.33 4898.94 5196.0 4178.15 4613.31 4973.78 4733.04 6119.09 5091.68 7531.29 5069.25 5048.89 3161.47 3991.03 3435.9 6390.78 7435.25 4288.3 6826.57 4788.87 4495.87 6022.72 5498.32 5527.33 5402.21 4989.09 2845.98 4880.14 5289.52 4982.31 5314.85 3848.54 5941.4 6510.17 5742.65 4402.67 5565.13 4470.61 4384.88 6887.27 3701.27 6008.49 5653.9 4806.34 4287.53 5612.21 4929.14 5945.08 5304.13 3306.14 5490.58 5833.06 4863.79 4923.41 3830.46 6031.67 5384.76 6138.12 4428.78 5409.66 4345.67 4765.72 4642.66 4752.14 5329.59 4888.12 4950.97 5512.16 3197.63 5842.56 5887.15 5203.08 7480.41 3423.15 4890.5 4488.85 3981.07 3731.84 4901.07 5186.3 3436.15 4151.76 5941.61 4020.4 3493.47 4596.75 6248.6 5443.58 4558.46 5805.86 6894.26 4470.4 4986.51 5339.38 6169.11 5615.35 4790.78 4027.09 6422.84 4502.18 4602.85 4962.77 5872.05 4853.02 4091.8 6259.23 5181.4 5670.2 5985.29 4711.62 4247.23 4268.65 4694.83 5509.42 4354.08 5788.66 4256.43 5936.36 4520.62 3903.75 4755.47 5935.03 5475.8 5314.69 4249.46 5965.81 3702.37 5660.85 4643.31 2330.66 4177.19 6917.52 3587.05 6229.37 6718.19 5282.91 4307.48 4425.84 5331.02 4871.96 4863.23 3555.86 6386.78 4631.83 4996.99 6081.14 4220.46 5128.57 6000.7 3169.67 4968.03 3361.92 6710.88 5395.14 4702.06 3967.48 6213.04 4689.15 3685.13 4655.16 5251.4 3867.19 5857.79 4039.91 5276.7 5036.58 6119.63 5411.02 4752.9 4287.16 4863.96 5199.44 5191.08 4435.51 5374.07 5163.77 4588.7 3766.55 4579.69 3554.48 6496.52 5005.85 4216.17 6484.17 4721.02 4254.37 4933.65 4031.78 6098.1 5708.99 4049.02 5311.03 5346.68 5255.12 5296.29 4611.53 4285.66 4896.11 5172.53 5801.99 5379.09 5210.48 7552.94 5323.3 5088.44 4998.21 4114.24 4662.56 5349.31 2976.22 4649.22 5394.55 5094.52 4946.74 2682.24 5928.32 5229.48 5475.7 4485.99 4016.18 5127.16 5435.74 4244.99 6050.81 5543.46 6185.89 3997.96 4750.17 4439.35 3460.94 3990.25 3691.0 4752.51 4236.14 4407.87 5282.51 4460.92 3797.33 5945.89 7256.35 4105.55 4800.69 6566.1 6065.22 4221.28 4456.39 4896.39 3633.79 5421.53 5480.83 5937.08 4607.85 6070.3 5233.29 4312.56 4612.06 5604.21 5204.04 4750.58 6667.68 5235.11 6622.11 5211.38 4590.55 6790.73 5920.32 4255.85 5097.69 3988.3 6543.13 5149.72 5464.25 5301.47 4617.55 5424.88 4062.5 5415.85 8659.64 5683.95 6027.62 5010.2 6123.03 5966.61 5711.11 4575.94 4938.72 3546.71 3374.08 5768.57 5564.23 5950.04 4231.83 5687.85 2435.33 6401.43 5020.71 2681.29 5094.48 3872.61 4238.4 4135.62 4318.48 6132.95 5534.94 4860.33 7644.38 4051.34 6101.92 3627.55 4635.6 4256.67 3457.48 5166.79 3931.07 3405.98 5417.15 3688.16 4681.72 4945.39 5996.33 3950.63 5415.19 4612.62 3619.07 5526.75 4275.57 6385.23 5327.45 5560.26 2614.4 6363.92 6205.93 4923.24 5830.72 6184.4 3758.07 3828.81 4373.45 4082.57 5733.62 5169.9 3004.16 4767.78 5235.17 4779.5 4042.28 4421.12 4340.76 5254.49 4303.19 5514.84 5784.3 4256.57 3914.2 4135.08 5620.74 4778.82 5467.84 5053.95 5926.11 5767.9 5089.62 6515.8 5869.4 4741.26 3701.16 4186.6 5895.77 4732.09 6136.49 4356.25 4216.95 5776.96 4209.49 5742.74 5486.48 4244.21 4947.24 3645.12 3875.05 6200.54 5148.58 4199.45 5469.13 4233.8 5765.42 4997.83 4893.49 5325.44 5021.88 5956.65 4498.25 4188.87 3735.24 6574.95 4074.48 4558.47 5731.57 5997.88 5839.71 5576.92 6408.83 5266.22 3930.79 5226.97 3685.13 3312.06 6004.68 3361.26 6799.4 6239.84 5865.39 4427.28 6079.11 3082.32 6430.39 7440.72 3949.6 5703.6 6326.18 5661.62 6631.19 6648.68 4467.04 4713.74 5626.61 5817.25 2983.99 4084.49 5061.98 6632.99 4537.6 4419.61 7177.44 4563.46 5309.98 6553.94 5255.18 5460.65 5652.0 5463.41 5225.33 4929.75 4435.36 6045.22 6649.96 5134.39 3532.3 5769.98 5442.32 6088.68 2221.99 4643.56 3580.58 4863.01 5356.79 5657.36 6124.08 3619.79 5029.47 6306.21 5266.01 5253.37 2040.66 7016.27 3685.65 3876.21 4916.22 6022.7 4940.84 5750.07 4809.67 4757.74 6045.67 3946.28 3821.94 5439.9 5367.73 3540.11 3456.47 4652.01 7234.66 6599.66 4055.54 4886.12 6419.12 4976.12 6098.95 5453.98 3991.42 4388.63 5102.75 4597.29 4200.09 5931.77 5151.21 6333.29 4477.04 3886.68 5703.74 5662.55 5737.92 4360.23 5365.24 5293.51 4004.35 4763.96 5754.18 5180.76 3418.99 4480.95 5278.36 4409.63 5521.25 3661.9 5370.85 5949.46 3658.37 3178.54 5376.71 4448.13 5070.29 4807.28 4867.08 4266.03 5280.69 4220.03 6923.84 5407.78 5449.46 6179.96 6113.54 5147.36 6260.79 3963.76 5528.53 6799.88 3062.43 5726.66 5426.78 2967.38 4159.35 6477.91 4237.98 6439.37 4614.3 5580.92 5973.33 3583.21 5067.46 2511.46 4011.37 2775.69 4785.25 6519.43 5876.64 5424.46 4857.84 2978.76 4908.49 4962.21 4858.44 5884.9 3468.42 4673.35 5689.26 4992.42 5297.19 4351.38 4833.46 5933.7 7248.4 5280.12 5984.81 3498.16 4409.27 4640.06 5471.74 3548.39 5421.64 3673.28 4858.51 4207.54 5625.65 4301.61 6107.89 4817.16 4446.84 5660.55 5148.08 4834.87 3672.21 5760.22 5938.17 4795.43 5398.64 5097.95 6817.57 4693.52 3614.96 6853.04 4745.43 5831.96 4747.55 3056.7 3755.95 6234.32 4586.19 4446.06 3450.93 5008.63 5132.68 6595.03 4993.35 6218.95 5222.16 5107.23 5136.08 5558.68 3776.94 4765.02 4010.57 5629.39 2684.03 6157.04 4768.61 2261.36 5075.55 5506.19 6719.94 5227.59 6166.29 5453.6 5703.07 5294.77 4662.43 4709.05 4630.82 4043.66 4813.08 5860.67 4540.86 5990.52 4835.83 5604.35 6316.56 4332.87 3091.67 6420.81 4081.97 4715.58 5401.99 5151.52 5369.08 4347.74 5291.9 4009.62 2081.58 6505.78 5461.55 6865.76 6449.64 6464.8 4684.44 4749.59 5799.69 5571.72 3809.69 4771.13 3208.96 7051.9 4184.23 5550.75 6834.41 6226.14 5466.33 4444.97 3000.29 5721.05 4247.69 4514.39 4588.99 4321.21 4344.34 4928.27 3583.49 5052.84 3375.28 4366.74 5297.16 3184.64 5206.33 5530.49 5653.03 3718.69 4514.79 2216.82 4509.89 6752.75 5269.38 5607.3 5108.06 3573.73 2928.82 4222.4 4000.43 4568.41 3420.08 4912.04 4539.07 5464.68 5591.76 4585.31 6625.18 5323.91 4270.74 5097.45 6293.89 4558.15 5737.75 2761.07 4983.39 5366.52 4690.55 5533.72 5533.42 4802.32 3678.08 4599.38 5246.47 4187.31 6191.29 4522.21 3240.51 7422.36 5161.01 4298.15 4950.67 4628.4 5832.37 6051.83 4642.93 5409.63 4263.16 3077.84 6024.75 6109.49 5567.93 5332.65 3764.1 6451.33 5413.31 3012.99 6400.08 4743.59 5208.14 3317.83 4450.7 3763.05 5092.24 5549.49 3101.75 4518.04 4766.06 4874.18 5435.19 3298.2 4270.15 4953.1 4093.99 3940.49 4406.05 4680.94 5876.72 5236.43 5285.07 4608.41 4144.57 4187.94 5980.59 3796.15 4801.8 7216.98 5271.02 4209.31 5718.28 6242.79 5950.45 5713.03 5849.65 5134.67 4165.21 4215.0 4936.96 4481.76 5452.78 5065.26 4304.41 6192.0 4940.28 5885.28 3004.34 3022.6 4811.76 4914.45 4698.87 4661.03 3624.7 5262.35 4691.91 2685.81 4475.83 4510.8 5889.35 5010.04 4394.56 4570.98 4275.07 5825.38 4185.61 4047.87 5742.47 3778.02 6552.21 5417.8 5146.37 7132.12 4836.16 5518.57 5151.11 5463.48 5730.33 5545.46 4527.99 4376.7 5190.61 8325.01 3764.06 4440.81 5941.9 3973.12 5434.47 6642.76 5829.22 4497.78 4243.79 5987.42 5433.65 4442.22 4008.15 4887.76 4669.06 4811.32 4286.49 6184.88 5829.32 4396.25 5551.95 3918.87 2275.45 5423.42 6605.86 4383.56 5012.5 3562.79 7093.13 5818.95 4516.53 3604.14 4452.54 5089.1 2711.19 5828.35 4028.32 4099.92 4884.59 3858.06 4680.14 4511.7 4083.79 5263.27 6300.92 5021.77 5599.29 6038.68 5046.12 4807.4 7013.17 3805.67 4601.74 6506.86 5088.57 5580.34 3852.6 5775.31 4706.5 4603.5 4647.67 5375.12 4356.36 4892.44 5578.94 7610.49 4286.17 6579.31 5323.55 5375.1 4172.6 5313.12 5351.56 3984.88 5160.59 4732.09 4320.42 4255.34 5064.79 5480.3 7509.24 4146.81 5896.26 5388.78 6101.13 4573.72 5099.21 4917.99 5636.4 4367.78 4350.12 5227.02 5670.0 4232.16 5300.96 4344.51 5680.94 3781.77 5581.55 5193.01 4543.1 3474.5 6550.44 3860.83 5732.27 4523.39 5278.56 5146.37 6917.62 4013.38 5631.14 4343.78 5811.18 5263.3 4909.65 6523.86 7693.4 4326.48 4437.07 3449.37 5491.9 6405.0 4659.16 5789.55 4633.05 4901.2 5711.62 4798.17 4990.79 5166.79 6479.39 2895.63 4122.92 4997.91 5079.22 5381.54 5810.77 4714.83 5474.15 7519.2 6355.68 4478.6 3953.55 4304.63 4469.54 4314.56 4173.54 3928.53 5606.51 5740.65 3834.47 6349.67 6329.53 4590.01 6101.86 5993.0 4803.57 5966.42 4110.59 3332.49 5354.66 4214.44 5378.23 4787.97 3746.36 6789.23 3989.7 4777.03 3684.56 4246.61 6028.09 5452.36 3804.5 6486.37 5498.42 3344.57 5318.53 5220.76 4281.98 7165.9 5344.83 7046.11 3427.63 4863.97 6342.48 5756.75 4587.67 5599.7 4163.74 6969.28 3665.95 5698.96 4095.75 3603.51 4298.45 5222.51 6609.84 5135.96 3834.43 5658.37 4707.06 6074.94 5491.37 4250.88 3783.54 6348.03 3475.67 4792.39 7038.89 3863.67 4814.12 5067.56 6137.8 2735.53 3352.35 5116.6 3747.03 2783.85 4356.49 4526.81 3994.07 4219.94 5907.46 6740.71 4264.91 5399.29 5971.22 4909.31 6522.59 6602.43 3568.28 5425.98 5996.66 4405.42 2995.67 3598.08 4599.81 5698.23 7300.58 3608.06 6633.61 5217.95 5484.36 4277.24 4063.9 5291.05 5161.1 4619.2 5166.41 5067.56 2596.96 5701.75 4350.15 4139.3 6541.45 4227.41 4750.49 5078.31 5391.48 4923.43 5131.15 4847.14 3950.27 5116.66 3566.79 5374.67 4981.43 4215.2 5069.89 4157.29 6813.72 5327.75 4609.02 4896.65 4638.18 4196.37 6448.66 4453.97 6945.98 5138.2 5783.48 4701.5 4449.98 4504.35 4771.65 4840.44 5093.82 5951.81 3924.14 6918.35 4296.69 6238.32 3319.67 6471.42 5283.8 4076.59 4428.14 5164.1 6464.15 4972.17 6685.4 5699.53 4222.77 6332.01 5268.38 5527.23 4805.33 5980.95 6193.08 6069.3 5887.01 5168.35 5388.39 3728.18 5335.47 5633.61 5048.19 6799.23 4888.27 4592.15 6487.56 4854.11 4998.22 5533.19 5417.21 5583.61 6063.64 7382.3 4022.56 5522.21 3772.3 4855.01 4923.57 3340.09 6061.63 2279.05 4867.7 4829.35 4075.28 8137.11 5484.32 6650.77 4067.96 7104.73 6162.3 3272.75 4264.54 3516.27 4263.78 4643.9 5228.75 6047.14 5009.83 5210.38 5717.8 3629.44 5003.78 3299.24 6246.56 4741.28 4061.6 2603.64 5107.0 6212.15 6502.97 4783.07 4946.23 6083.28 5211.6 5806.31 3556.79 5456.71 3503.41 7317.04 6412.67 7001.83 5012.97 5589.37 5439.49 6639.64 5212.43 5454.12 4834.3 6804.79 5642.35 6372.13 5369.5 5404.01 6016.19 4124.49 4479.11 3230.13 5714.25 5325.96 4850.06 5016.02 7044.29 4234.18 4920.21 4049.16 7085.01 3936.95 6153.94 6836.82 3862.77 4631.99 4740.98 3185.39 5128.77 7122.87 5797.36 4243.26 4153.84 5119.86 5089.26 5084.17 4901.44 3776.8 5096.43 6156.21 6104.26 4653.83 6171.71 4986.71 3628.89 6589.82 4668.88 5027.43 5522.75 5867.64 6208.9 6059.93 5602.53 5073.02 6545.43 6760.92 4989.2 4711.04 7144.05 4506.18 4824.12 2970.9 6542.5 4383.47 5971.21 5261.19 3104.96 7043.44 4263.65 6106.43 4807.35 5467.63 5666.95 4642.2 4811.22 3683.86 4918.76 5293.75 4208.41 5826.78 5473.72 2856.55 4553.68 3758.22 4757.2 4852.58 3205.68 5561.74 6100.73 4788.08 4745.79 5470.04 4908.75 3971.08 6204.65 4482.9 4593.7 4036.91 4349.13 5110.11 6379