# vtk DataFile Version 2.0
Time step 39
ASCII
DATASET UNSTRUCTURED_GRID
POINTS 5000 float
16747.6 113640.0 0
27669.5 112023.0 0
171830.0 113563.0 0
177734.0 113601.0 0
182938.0 112787.0 0
278881.0 113732.0 0
297319.0 113697.0 0
372012.0 112118.0 0
394019.0 113580.0 0
403649.0 112507.0 0
408587.0 113719.0 0
422737.0 113525.0 0
432479.0 113038.0 0
446252.0 113913.0 0
477063.0 112914.0 0
485844.0 112846.0 0
497601.0 112878.0 0
2398.28 115114.0 0
8532.7 114488.0 0
6061.8 117809.0 0
12438.9 114322.0 0
11086.7 118840.0 0
22243.6 115287.0 0
28518.7 118375.0 0
33204.0 114711.0 0
38184.5 115294.0 0
42703.2 115447.0 0
47472.5 115354.0 0
52137.1 115453.0 0
57005.0 114292.0 0
62763.5 115368.0 0
67994.7 115502.0 0
72702.4 114634.0 0
77500.0 115381.0 0
82500.0 115370.0 0
87407.7 114669.0 0
92500.0 115408.0 0
97192.7 115430.0 0
101292.0 115347.0 0
105946.0 114737.0 0
111936.0 115216.0 0
117850.0 115401.0 0
123330.0 115477.0 0
128345.0 115598.0 0
133428.0 114847.0 0
138124.0 115531.0 0
142500.0 115452.0 0
147500.0 115385.0 0
152501.0 115355.0 0
157589.0 114983.0 0
156861.0 119032.0 0
162561.0 115138.0 0
167011.0 114680.0 0
178375.0 119014.0 0
183532.0 117855.0 0
187393.0 114642.0 0
188603.0 119088.0 0
192498.0 115804.0 0
196079.0 114966.0 0
201748.0 114326.0 0
207651.0 115090.0 0
212985.0 114426.0 0
213692.0 118977.0 0
218128.0 115512.0 0
222480.0 115524.0 0
225794.0 114754.0 0
226802.0 118989.0 0
230434.0 114626.0 0
235810.0 115624.0 0
241170.0 114328.0 0
246502.0 116330.0 0
252679.0 114313.0 0
259052.0 114788.0 0
263773.0 115876.0 0
268740.0 114786.0 0
273935.0 115081.0 0
271611.0 118933.0 0
282030.0 117064.0 0
286325.0 115372.0 0
291717.0 115828.0 0
303664.0 114482.0 0
307730.0 117052.0 0
312126.0 114906.0 0
317928.0 115524.0 0
323245.0 115428.0 0
327581.0 115699.0 0
332206.0 115298.0 0
337223.0 115007.0 0
341019.0 116218.0 0
345896.0 114553.0 0
350687.0 116475.0 0
355259.0 115460.0 0
361815.0 114100.0 0
365114.0 119106.0 0
367954.0 115434.0 0
377031.0 114090.0 0
372930.0 118919.0 0
382609.0 114964.0 0
378819.0 118641.0 0
388132.0 114264.0 0
399200.0 115249.0 0
402998.0 118706.0 0
412474.0 115369.0 0
408387.0 117999.0 0
417500.0 115414.0 0
422128.0 118162.0 0
427271.0 115235.0 0
433428.0 118271.0 0
437539.0 115391.0 0
442089.0 114332.0 0
443214.0 118615.0 0
447601.0 117923.0 0
450665.0 114681.0 0
455208.0 114621.0 0
460242.0 114466.0 0
465794.0 114854.0 0
471628.0 114111.0 0
481305.0 115777.0 0
486589.0 119035.0 0
491674.0 114384.0 0
496837.0 118387.0 0
2284.46 120130.0 0
6739.28 122854.0 0
17332.0 119542.0 0
23004.8 120798.0 0
34968.6 119985.0 0
40341.1 120304.0 0
44463.9 120645.0 0
48279.1 119348.0 0
47588.3 124069.0 0
52500.0 120413.0 0
57995.1 119734.0 0
62849.8 120468.0 0
67505.2 120139.0 0
72116.3 119754.0 0
77500.0 120539.0 0
82116.1 120185.0 0
87907.8 119426.0 0
92500.0 120548.0 0
97183.6 120177.0 0
102467.0 120082.0 0
108243.0 119328.0 0
107924.0 124108.0 0
112500.0 120484.0 0
117500.0 120566.0 0
122500.0 120489.0 0
127727.0 120032.0 0
132494.0 120382.0 0
137520.0 120397.0 0
142774.0 119874.0 0
140993.0 123995.0 0
146927.0 120222.0 0
151938.0 120100.0 0
156245.0 123593.0 0
161297.0 119853.0 0
166509.0 119352.0 0
172971.0 119132.0 0
169997.0 123919.0 0
182187.0 122994.0 0
193570.0 119948.0 0
198250.0 119311.0 0
203920.0 119946.0 0
209356.0 120161.0 0
213300.0 123788.0 0
217601.0 120583.0 0
222033.0 120349.0 0
226872.0 123994.0 0
232205.0 120051.0 0
237686.0 120875.0 0
243284.0 120700.0 0
248461.0 120403.0 0
252678.0 120874.0 0
257263.0 119426.0 0
257737.0 124178.0 0
262325.0 120052.0 0
267062.0 119629.0 0
267489.0 124084.0 0
273046.0 124174.0 0
277074.0 119337.0 0
279878.0 123399.0 0
282828.0 120751.0 0
287500.0 120462.0 0
292912.0 120320.0 0
298249.0 119207.0 0
303118.0 120152.0 0
307442.0 120345.0 0
312501.0 120657.0 0
317476.0 120399.0 0
322433.0 119897.0 0
322509.0 123902.0 0
327500.0 120443.0 0
332500.0 120515.0 0
337713.0 119849.0 0
341413.0 123448.0 0
343307.0 119243.0 0
346845.0 124027.0 0
347751.0 119640.0 0
352668.0 120365.0 0
356026.0 123754.0 0
361441.0 119412.0 0
357755.0 119880.0 0
361260.0 124114.0 0
366513.0 123187.0 0
382004.0 119779.0 0
384354.0 123116.0 0
388374.0 119352.0 0
393554.0 119727.0 0
398136.0 120161.0 0
412864.0 119311.0 0
409243.0 123644.0 0
417519.0 119930.0 0
428326.0 120177.0 0
424120.0 122980.0 0
432249.0 123895.0 0
437510.0 120459.0 0
442357.0 123851.0 0
448274.0 122995.0 0
451945.0 119159.0 0
457176.0 119349.0 0
462429.0 120837.0 0
466599.0 119424.0 0
470193.0 120604.0 0
472372.0 123926.0 0
475181.0 119404.0 0
480797.0 121052.0 0
492077.0 121285.0 0
2238.62 126052.0 0
8050.26 128694.0 0
11843.5 124670.0 0
13471.8 129297.0 0
16323.5 124750.0 0
17752.2 128594.0 0
20503.0 124760.0 0
22417.1 129134.0 0
27043.0 125208.0 0
32615.6 125041.0 0
32071.9 129329.0 0
38262.9 124816.0 0
42969.9 125203.0 0
49063.5 128861.0 0
51800.2 125834.0 0
56554.1 125354.0 0
62114.7 125325.0 0
67697.2 124983.0 0
73695.6 125297.0 0
78211.1 125736.0 0
81954.6 124911.0 0
86960.4 124942.0 0
92531.5 125299.0 0
97548.4 124697.0 0
102630.0 125844.0 0
116732.0 125169.0 0
112494.0 125382.0 0
120857.0 125019.0 0
125864.0 124400.0 0
123420.0 129007.0 0
131158.0 126098.0 0
136445.0 126050.0 0
146306.0 125114.0 0
151834.0 126712.0 0
156828.0 128988.0 0
161703.0 125543.0 0
166528.0 127362.0 0
176294.0 124771.0 0
182233.0 128473.0 0
188049.0 125249.0 0
194261.0 124974.0 0
199972.0 124416.0 0
208111.0 125069.0 0
204288.0 125411.0 0
217709.0 125516.0 0
222564.0 124624.0 0
222022.0 128882.0 0
232444.0 125515.0 0
237422.0 125301.0 0
237873.0 128625.0 0
241792.0 125954.0 0
246842.0 124472.0 0
251784.0 125765.0 0
255872.0 128894.0 0
262719.0 124830.0 0
260337.0 128564.0 0
266350.0 128766.0 0
278361.0 128902.0 0
283555.0 125684.0 0
287216.0 125752.0 0
288758.0 128906.0 0
291017.0 124627.0 0
296734.0 124251.0 0
302234.0 125387.0 0
307700.0 124775.0 0
313207.0 125900.0 0
318189.0 124890.0 0
321077.0 129129.0 0
326813.0 125784.0 0
329893.0 129327.0 0
336511.0 124513.0 0
331856.0 125501.0 0
339780.0 128839.0 0
351893.0 125201.0 0
357350.0 127711.0 0
366551.0 127880.0 0
371101.0 125060.0 0
377674.0 124576.0 0
382813.0 128632.0 0
392424.0 124549.0 0
388338.0 126305.0 0
397217.0 124509.0 0
402858.0 124947.0 0
408059.0 128993.0 0
414412.0 126199.0 0
419144.0 124619.0 0
427685.0 126016.0 0
437341.0 124634.0 0
437115.0 128829.0 0
446525.0 127993.0 0
450849.0 128493.0 0
454177.0 124563.0 0
458991.0 125612.0 0
463186.0 125375.0 0
467519.0 125484.0 0
472595.0 128885.0 0
477747.0 124875.0 0
482622.0 125747.0 0
487506.0 126849.0 0
491506.0 125347.0 0
492124.0 129203.0 0
496591.0 124956.0 0
2182.12 130466.0 0
11904.3 133036.0 0
17161.1 133773.0 0
26988.2 131131.0 0
30223.9 133869.0 0
37588.5 130021.0 0
39763.9 134085.0 0
43205.1 130266.0 0
48581.6 134085.0 0
53807.2 130534.0 0
59222.8 130033.0 0
57213.1 134425.0 0
63616.8 129656.0 0
63065.3 134431.0 0
68064.9 130655.0 0
72603.0 130172.0 0
73400.7 134231.0 0
77068.8 129656.0 0
82136.1 129932.0 0
87334.1 130116.0 0
92269.2 130629.0 0
97732.2 130049.0 0
102767.0 131300.0 0
107685.0 129606.0 0
111306.0 134295.0 0
113113.0 129711.0 0
118139.0 129645.0 0
122098.0 134197.0 0
127500.0 130563.0 0
137738.0 129965.0 0
132691.0 130926.0 0
142523.0 130114.0 0
147011.0 133999.0 0
148001.0 129722.0 0
153419.0 131365.0 0
160406.0 130356.0 0
164429.0 131065.0 0
167047.0 133939.0 0
170842.0 129948.0 0
177032.0 131339.0 0
186625.0 130884.0 0
191646.0 130371.0 0
197223.0 129701.0 0
203055.0 129555.0 0
208748.0 131415.0 0
214360.0 129458.0 0
218717.0 130764.0 0
216320.0 134075.0 0
221176.0 134414.0 0
227506.0 129544.0 0
234331.0 129895.0 0
231983.0 134394.0 0
237943.0 133361.0 0
241750.0 130556.0 0
246211.0 129657.0 0
251519.0 131023.0 0
257727.0 134076.0 0
262637.0 132139.0 0
271757.0 130443.0 0
284358.0 130423.0 0
288835.0 134227.0 0
292983.0 130622.0 0
298941.0 130551.0 0
303985.0 130783.0 0
307500.0 130607.0 0
316256.0 129604.0 0
312166.0 130425.0 0
316967.0 134040.0 0
325851.0 130716.0 0
334357.0 131322.0 0
341520.0 134332.0 0
346088.0 130282.0 0
352844.0 130776.0 0
361674.0 130102.0 0
357892.0 134289.0 0
367105.0 132787.0 0
371934.0 130693.0 0
377880.0 132026.0 0
387369.0 130490.0 0
393045.0 131220.0 0
399508.0 130117.0 0
403055.0 134119.0 0
404321.0 130143.0 0
408162.0 133843.0 0
412347.0 130663.0 0
416949.0 130001.0 0
414684.0 134310.0 0
421365.0 131251.0 0
425657.0 129643.0 0
427477.0 134094.0 0
431065.0 130086.0 0
436125.0 133812.0 0
441813.0 129437.0 0
448329.0 133505.0 0
455408.0 130335.0 0
461202.0 130026.0 0
466977.0 129810.0 0
473887.0 134102.0 0
478848.0 130374.0 0
484705.0 130888.0 0
489148.0 131612.0 0
496754.0 131598.0 0
1482.5 135143.0 0
2749.56 139181.0 0
7154.19 135002.0 0
12670.5 137541.0 0
23052.5 134518.0 0
28648.2 137915.0 0
34874.7 134662.0 0
39134.3 138926.0 0
43682.3 135920.0 0
53134.3 136535.0 0
59719.7 139436.0 0
68311.2 135831.0 0
72212.8 138110.0 0
78301.7 134805.0 0
83593.1 134873.0 0
88397.4 134933.0 0
92508.2 135472.0 0
97237.1 135464.0 0
101195.0 135529.0 0
105586.0 135122.0 0
111043.0 139144.0 0
116640.0 134904.0 0
126931.0 134606.0 0
131218.0 135307.0 0
136577.0 134515.0 0
142212.0 135808.0 0
151801.0 135932.0 0
157942.0 134924.0 0
161442.0 139399.0 0
163658.0 135550.0 0
166774.0 139291.0 0
171003.0 135956.0 0
176728.0 137630.0 0
182933.0 135393.0 0
193693.0 134457.0 0
189204.0 135289.0 0
198249.0 135589.0 0
203175.0 134656.0 0
202629.0 139232.0 0
207321.0 136795.0 0
212115.0 135667.0 0
226331.0 136182.0 0
236018.0 138344.0 0
242843.0 135210.0 0
248029.0 134735.0 0
252898.0 135051.0 0
250905.0 139202.0 0
262830.0 137718.0 0
267588.0 134718.0 0
272698.0 136328.0 0
278480.0 135556.0 0
283574.0 135010.0 0
282084.0 138940.0 0
293487.0 135219.0 0
297507.0 136597.0 0
302639.0 135088.0 0
301871.0 139015.0 0
307116.0 135448.0 0
311942.0 135166.0 0
316865.0 139166.0 0
322297.0 134724.0 0
330939.0 134842.0 0
327151.0 135586.0 0
333888.0 139071.0 0
337122.0 135220.0 0
346660.0 136247.0 0
351579.0 136427.0 0
355552.0 138553.0 0
362982.0 135076.0 0
370166.0 136234.0 0
[...]
POINT_DATA 5000
SCALARS Radius float 1
LOOKUP_TABLE default
5253.55 5782.6 6044.04 5415.48 5120.0 5580.89 6810.52 5529.52 6756.95 6324.23 3843.58 4270.53 5191.63 4216.92 4861.06 5320.28 4797.52 4796.58 3979.26 4298.67 3471.03 5960.66 5820.48 7034.11 4862.21 5113.21 3929.19 4107.03 4478.15 5379.87 5925.6 4501.51 4792.73 4736.58 4931.38 3485.26 4329.05 4151.94 4049.23 5337.48 6124.89 5708.81 5252.48 4780.03 5495.39 3996.0 3856.1 4665.12 3383.4 4133.88 4094.62 4834.9 3850.77 5484.83 5085.53 3863.18 5351.6 2356.98 4998.37 6182.6 5492.18 5258.36 3951.75 5061.3 3642.12 3163.97 5542.27 5812.43 5122.66 5906.14 5484.19 7513.1 5254.28 4436.4 5733.48 4672.91 4182.53 3588.44 5645.7 5176.86 5840.26 3672.51 6110.27 5561.06 5073.35 3615.22 5670.04 4380.59 3589.27 6716.79 3607.45 5759.91 7613.27 4333.2 4951.03 5255.32 7199.21 6037.08 4523.7 5096.78 4129.43 6142.94 3320.52 4727.24 4194.5 5082.47 5344.25 5445.87 4593.7 4150.99 4704.72 4177.94 4742.68 4344.58 5634.83 5495.84 6268.1 5374.51 7042.12 6739.08 6326.39 4569.12 5873.69 6608.73 5011.84 6261.42 4502.5 3771.48 4043.57 5499.11 4271.69 5681.38 4138.42 3708.04 5513.6 3240.09 4556.36 6082.81 3191.99 4685.34 5601.05 4929.8 4651.28 3586.91 3103.0 3554.9 4015.92 5542.21 4487.31 3936.02 5043.05 4044.71 5980.74 5109.54 4927.02 5546.39 5325.36 5945.65 5538.89 4730.36 4715.55 5867.73 5013.56 5701.86 4499.64 4375.68 4468.59 5054.98 6030.06 5170.02 3557.27 4927.31 4688.68 4862.64 4402.52 4517.56 4432.58 6684.56 5903.42 3968.64 3955.56 3761.32 4118.05 4366.19 5553.16 2938.66 4940.78 4231.61 4008.92 4003.05 3942.53 3379.84 4827.82 5227.21 3997.1 5697.78 3260.67 5123.52 4091.31 3038.33 4392.68 6372.62 4295.38 2240.39 5923.5 5091.39 5293.9 3912.37 4602.25 6691.39 4790.08 4763.45 5344.0 6045.46 3815.26 5908.1 6048.7 4571.7 5896.46 5022.8 3784.5 3780.23 4166.08 6481.79 5224.12 4819.73 4471.58 6098.14 4962.09 4472.17 3999.48 4203.26 4359.62 5188.81 6946.21 2586.12 6057.22 5433.8 4011.77 4527.08 3633.87 5922.5 5198.77 5987.17 6013.14 2765.2 4901.41 5110.37 5664.98 4382.74 5927.43 3693.63 4384.42 4516.43 5481.78 4948.92 5637.59 4937.14 5816.2 5693.81 4174.52 6483.19 3829.13 6759.9 5418.62 7021.47 5416.38 6059.59 4955.55 2720.68 3563.63 4238.81 4345.55 5885.03 2837.58 3871.88 5325.02 5200.76 5017.13 5279.39 5185.34 3673.74 5205.43 7447.37 4688.67 2635.86 4385.06 5292.64 6166.5 5065.13 5936.02 5305.17 4861.08 5399.73 5390.22 3888.21 4805.87 4712.33 6038.78 4667.36 4254.17 5090.24 5615.42 7565.34 5530.87 4612.68 4281.49 4973.83 6342.25 4187.56 4840.84 5135.69 4020.32 4245.72 4156.38 4541.21 4164.68 6133.92 3719.84 4178.4 3095.48 5762.59 4123.6 4850.14 5163.55 3382.7 3954.91 6817.32 4319.79 3637.61 6222.42 4730.41 3745.84 5062.71 4156.2 6125.34 5965.78 5347.48 4850.01 4810.12 3970.25 5643.58 5147.67 3979.82 4292.06 5011.31 5138.31 5264.06 4659.59 6327.9 4048.37 6355.42 5492.26 4362.19 5690.56 5762.84 3115.91 3307.12 4493.48 5924.89 4778.34 4002.16 4138.16 3486.22 4684.5 3091.3 6230.49 6458.82 4601.27 5493.32 5740.68 5926.61 6051.14 5836.15 3261.21 4195.44 5539.32 6704.06 3653.41 6496.85 5600.93 3856.01 5246.2 4390.66 5728.85 4827.23 6116.18 4924.6 6257.19 4733.32 7184.19 2899.43 2924.37 4290.3 3867.67 4695.45 4660.72 5891.05 5308.1 6902.81 6644.76 5629.19 5655.21 4786.6 5740.84 6445.94 4310.18 7134.64 5978.9 4716.19 3629.62 5514.76 4997.27 4301.06 3456.98 4877.67 4290.14 3066.13 6562.18 6006.16 5316.75 7055.53 5669.65 5934.22 5624.49 4970.88 7092.87 4666.81 3703.1 6471.55 2965.01 5499.39 6643.85 5501.93 5654.31 4938.74 5690.26 5607.14 4497.59 4374.35 6396.74 5215.05 3821.72 5577.04 5006.58 4602.86 3688.8 4548.16 3369.23 5449.18 4220.88 5244.78 3937.74 4749.8 6084.86 5478.92 5551.36 6894.71 4467.94 4414.54 4850.81 5789.98 6138.47 7054.71 3641.64 5489.43 5747.75 4277.89 4727.62 5054.25 4796.33 5360.19 4794.96 4874.39 5541.59 4124.71 5083.08 6337.56 4911.47 5803.39 5863.59 4381.97 4024.3 3255.82 5242.73 2812.98 4737.14 4065.69 5603.15 5556.96 6052.7 3921.18 3798.62 6392.01 3666.57 4907.89 4937.02 4073.93 4645.41 4433.59 4320.28 5542.14 2739.94 4931.53 4218.06 5480.13 6308.71 6695.82 6405.76 3498.2 5105.16 5448.61 4302.5 4827.33 6009.88 5013.67 5826.04 5339.78 4143.78 4763.66 4636.5 4940.42 5923.4 5085.71 5644.82 6343.14 5463.38 5945.21 5750.71 5696.88 4831.47 3923.03 4643.85 5975.63 5252.34 4138.46 4274.61 2775.04 4986.77 6898.19 6318.18 5586.81 4621.75 3948.17 4551.24 4581.13 5358.59 6387.01 4515.71 5367.52 6519.71 6640.13 5210.03 5082.6 5810.84 4230.54 5094.44 3748.24 4655.49 4933.21 5375.47 6038.14 2540.31 6029.66 5527.54 5573.7 5697.4 4270.95 4055.8 5206.78 7325.81 5280.17 6425.26 5143.58 6186.19 4839.34 2980.99 6834.49 5525.39 3998.5 5938.34 5380.13 6394.38 5555.28 5169.36 4686.65 5834.74 5788.23 3043.85 5581.75 3599.45 6730.19 4907.06 3735.44 5163.9 6043.3 5952.75 6332.36 6122.55 6155.31 4223.33 5911.67 3323.28 5835.78 5794.24 4127.74 2476.04 4678.38 5050.65 3937.08 5260.34 5206.48 5513.57 5729.23 5226.0 3365.82 4538.95 5724.64 5965.15 4780.2 6090.91 4946.42 5019.93 5081.78 6116.33 6263.44 5774.97 5462.21 5470.77 4004.04 6062.05 4289.17 5564.02 6072.45 2965.79 4410.55 6035.6 5137.34 4481.53 5423.0 5330.45 3856.59 3610.4 4219.07 5413.79 3092.35 4322.15 4714.54 3629.96 5478.47 3320.11 5351.39 6142.37 6061.47 6163.38 4566.18 4723.12 5120.49 5201.36 5262.61 6302.8 5409.61 6038.2 4005.44 5555.88 6732.43 5028.96 3866.16 6362.12 4484.76 4840.01 4511.82 5611.2 7933.0 4455.12 5173.87 4894.16 5711.87 5118.27 3372.79 4941.22 5932.23 5791.61 3369.13 4669.66 4479.66 4808.52 5367.2 5461.13 4726.76 5839.13 5495.68 5489.34 5002.48 5708.14 5537.72 3920.42 8332.24 4553.56 5329.64 6049.55 5709.62 5991.09 5133.97 3942.07 7443.72 5371.02 4709.35 6586.45 4373.3 4750.78 4163.5 5078.86 5100.1 3561.29 4963.34 4219.78 3295.83 4459.28 4260.92 6250.23 5960.56 4118.84 4020.95 6313.06 3474.39 3493.7 6470.3 4200.03 5082.74 6915.83 7099.43 5526.14 5198.29 5077.33 4746.52 3689.45 6338.89 6202.55 5025.39 7111.16 5893.5 4547.19 5030.91 6022.17 5119.37 3982.23 3459.9 4853.39 4997.27 4964.09 4809.42 5024.9 4306.53 5659.17 5094.81 5972.06 5713.22 5861.71 4359.04 3183.98 3794.63 4524.28 3778.1 5152.36 4727.24 5826.64 4220.65 6820.42 4816.2 6321.41 4896.52 4089.76 4751.02 3192.41 5184.56 5282.64 4715.72 5804.71 5046.33 4764.96 5607.24 4242.52 5053.92 6352.26 3847.38 3818.59 4863.72 4143.08 6623.85 4262.82 5102.36 4342.9 5065.11 5069.84 4051.44 4241.89 5054.74 5941.72 4656.78 5126.91 6600.94 4788.58 5196.67 6155.1 5876.71 6262.72 5029.78 6515.84 4888.6 2990.77 4739.14 4918.77 4371.99 4188.3 3885.86 5235.29 4479.94 4255.31 5453.3 6413.02 4863.27 5862.86 6049.79 5374.98 4719.7 6939.12 4735.33 5411.85 5092.37 6444.77 6314.07 4287.63 5315.4 6449.45 3975.31 3824.16 5125.78 5572.95 3868.18 4373.47 6723.16 5584.06 3817.13 5507.24 5023.15 6851.54 4583.31 4503.89 5806.08 5243.29 4093.08 4449.22 5543.27 4717.05 5287.2 6135.57 5998.38 4312.67 5013.13 5423.8 4270.24 4989.15 5017.78 4164.13 5015.69 6175.81 4947.52 6677.09 4305.57 6959.81 4829.35 5201.67 4424.7 4754.05 5526.55 6084.93 5215.15 4987.87 3315.57 4739.42 5020.12 5727.3 5281.28 5356.51 4277.88 4087.15 3057.03 4758.21 7500.97 3948.23 5228.18 5787.31 3927.99 5868.82 4978.31 4050.9 4099.77 4414.48 4537.32 4981.9 3600.43 4906.82 5131.24 5004.23 6496.67 5474.8 6607.87 3664.11 5117.47 4925.63 5882.65 4434.19 5187.7 4623.61 6261.75 5177.64 6134.99 4094.73 4407.9 3492.19 4584.5 4440.57 5122.63 4703.08 6345.13 5274.19 5516.95 4406.4 4413.85 4844.57 3999.94 4027.46 4470.98 4864.22 5776.37 4516.28 3921.08 4190.31 3627.82 4044.45 5262.19 5344.43 6070.58 5045.38 5350.88 5372.61 3686.21 5402.24 6480.17 4377.07 3844.9 3813.22 5101.59 5570.3 4336.42 4306.11 5935.47 7589.94 3130.65 5628.24 5856.11 3327.49 4109.88 4234.94 4562.29 4980.85 5080.66 3417.33 5110.45 4926.42 5248.77 4642.34 4520.1 5153.74 5874.89 4293.03 5813.4 4389.21 3791.79 4128.98 4925.44 6246.22 4951.47 5246.61 4307.28 3697.96 4723.48 5538.93 4899.11 4745.45 2631.9 7267.18 6255.18 4668.71 5269.18 7228.46 6362.14 6719.88 5978.82 5266.5 4523.88 4066.38 4403.98 4948.98 5227.52 4729.43 4092.24 5163.02 7144.24 5598.74 5687.83 7493.3 6442.69 6320.71 4648.04 3464.83 4721.32 4305.16 3293.56 3163.78 5092.28 5274.14 4903.82 5746.28 4082.47 5511.6 4453.64 4338.08 4517.73 4378.3 5469.47 4989.56 4718.54 5548.29 6766.43 2315.64 5916.16 4390.41 5226.56 5599.49 5313.22 4097.57 3905.51 5017.5 3901.8 5759.46 5083.41 5678.96 4244.9 6048.86 4285.32 6034.41 5452.83 5130.91 4948.5 4519.22 6445.22 3695.36 4564.34 3963.86 4871.44 3848.93 5076.35 6020.48 3402.32 5903.66 4528.49 5004.67 5365.89 5992.26 3960.8 4511.54 5070.39 4923.9 5714.58 5208.32 3296.27 4083.97 4713.25 4607.02 4528.09 3895.51 4165.81 3556.85 5441.96 6291.51 5174.89 5882.89 4188.32 4100.38 3746.31 5344.77 5027.98 5097.87 4278.07 6475.1 2691.29 6256.02 5320.92 4305.43 4406.1 5034.59 4942.77 4263.33 4454.63 5080.18 5912.61 5381.16 3279.1 6193.35 4560.84 6086.96 5233.78 5776.57 4562.74 5046.21 5683.26 5139.5 4814.55 3527.05 5698.77 2477.07 4497.31 6413.11 5529.42 5257.12 4965.89 5659.95 4152.85 2908.7 6415.61 4687.64 4419.71 5660.16 3838.47 2588.37 6736.03 6235.57 3623.87 3087.09 6934.37 6113.95 4050.08 5328.22 5563.79 6171.13 2395.5 5511.88 4512.11 7055.42 5486.68 5100.25 5490.43 5022.28 5197.52 4959.34 5383.07 4527.02 4531.14 4591.87 5013.42 3838.56 6552.22 5651.07 6375.99 5200.05 5234.29 5313.66 5419.37 5275.32 4466.03 5409.33 4898.94 5196.0 4973.78 3329.99 3947.47 5091.68 7531.29 4204.84 6243.0 6673.96 3161.47 3435.9 6390.78 7435.25 4288.3 5370.52 4788.87 4652.29 4495.87 5774.81 6022.72 5498.32 5527.33 5346.27 4969.21 4989.09 2845.98 4880.14 5289.52 5314.85 5941.4 5450.44 6510.17 5742.65 5592.32 4470.61 5565.13 3701.27 5653.9 4806.34 4929.14 5894.61 3979.54 5304.13 3306.14 5944.09 5833.06 4923.41 5384.76 6138.12 4428.78 5243.43 4537.14 4345.67 5551.9 3757.34 4642.66 4752.14 5329.59 4888.12 5037.06 4541.8 5175.29 3197.63 5842.56 5887.15 5412.31 7480.41 3423.15 4890.5 3981.07 5452.42 5186.3 6853.85 3497.9 5941.61 4020.4 5782.48 3493.47 6248.6 5683.61 3836.45 5805.86 6894.26 4986.51 5339.38 5178.99 6169.11 5615.35 4790.78 6422.84 4247.15 4502.18 4602.85 6248.81 5872.05 5273.35 4091.8 2651.49 4645.58 5181.4 5512.23 5670.2 5985.29 4247.23 4178.15 4613.31 4694.83 4733.04 6119.09 5788.66 5936.36 5069.25 3903.75 5048.89 4755.47 5935.03 3991.03 5475.8 5314.69 6826.57 4249.46 5965.81 3702.37 4643.31 2330.66 4177.19 6917.52 5402.21 6718.19 4982.31 3848.54 4307.48 4425.84 5331.02 4871.96 4863.23 3555.86 4402.67 4631.83 4996.99 4384.88 6887.27 6008.49 4220.46 4287.53 5612.21 5945.08 3169.67 4968.03 5490.58 5395.14 4863.79 4702.06 3830.46 6213.04 6031.67 4689.15 3685.13 4655.16 5409.66 3867.19 4765.72 4039.91 5276.7 6119.63 4950.97 5512.16 4287.16 4863.96 5191.08 5203.08 5374.07 5163.77 4588.7 4488.85 3766.55 3731.84 4579.69 4901.07 3554.48 6496.52 3436.15 5005.85 4151.76 4721.02 4596.75 4933.65 5443.58 4558.46 4049.02 4470.4 5311.03 5255.12 4896.11 4027.09 5801.99 5379.09 5210.48 4962.77 4853.02 6259.23 5088.44 4998.21 4711.62 4114.24 4268.65 5349.31 4649.22 5509.42 4354.08 5094.52 4256.43 2682.24 4520.62 5229.48 5475.7 4485.99 5127.16 5435.74 4244.99 6050.81 5543.46 6185.89 3997.96 4750.17 5660.85 3460.94 3990.25 3691.0 4752.51 3587.05 6229.37 4236.14 4407.87 5282.91 3797.33 5945.89 7256.35 4105.55 4800.69 6566.1 6386.78 4456.39 4896.39 6081.14 5480.83 4607.85 5128.57 6000.7 5604.21 5204.04 3361.92 4750.58 6710.88 3967.48 5235.11 6622.11 4590.55 6790.73 5251.4 5097.69 5857.79 6543.13 5149.72 5036.58 5464.25 5411.02 4752.9 4617.55 5199.44 4062.5 4435.51 5683.95 6027.62 5010.2 5966.61 4216.17 6484.17 4938.72 4254.37 3374.08 4031.78 6098.1 5708.99 5687.85 5346.68 5296.29 4611.53 4285.66 5094.48 5172.53 3872.61 4238.4 4135.62 5534.94 7644.38 7552.94 6101.92 5323.3 4635.6 4662.56 3457.48 5166.79 2976.22 3405.98 5417.15 5394.55 3688.16 4681.72 4946.74 4945.39 5996.33 5928.32 5415.19 4612.62 4016.18 3619.07 5526.75 4275.57 6385.23 5327.45 2983.99 5560.26 6363.92 6205.93 4439.35 5830.72 6184.4 3758.07 3828.81 4373.45 4082.57 5733.62 5169.9 5282.51 4460.92 4042.28 4421.12 4340.76 5254.49 6065.22 4221.28 4303.19 5514.84 3633.79 3914.2 5421.53 5937.08 6070.3 4135.08 5233.29 4778.82 4312.56 4612.06 5053.95 5926.11 6667.68 5767.9 5211.38 5089.62 5869.4 4741.26 5920.32 4255.85 4732.09 3988.3 6136.49 4356.25 4216.95 5776.96 5742.74 5486.48 5301.47 3645.12 5424.88 5415.85 8659.64 5469.13 4233.8 5765.42 6123.03 5711.11 4575.94 5021.88 3546.71 5956.65 5768.57 5564.23 5950.04 3735.24 4231.83 2435.33 6401.43 4074.48 4558.47 5020.71 2681.29 5997.88 5839.71 5576.92 4318.48 6132.95 5266.22 4860.33 3685.13 3312.06 6004.68 4051.34 3361.26 6799.4 3627.55 6239.84 4256.67 5865.39 4427.28 3931.07 6079.11 6430.39 3949.6 6326.18 3950.63 5661.62 6631.19 6648.68 4467.04 5626.61 5817.25 2614.4 5061.98 4537.6 4923.24 4419.61 7177.44 4563.46 5309.98 6553.94 5255.18 5460.65 3004.16 4767.78 5463.41 5235.17 5225.33 4779.5 4929.75 4435.36 6649.96 5134.39 5784.3 4256.57 5442.32 6088.68 4643.56 5620.74 5657.36 6124.08 5467.84 5266.01 5253.37 6515.8 3685.65 3701.16 4916.22 4186.6 5895.77 5750.07 4757.74 6045.67 4209.49 3821.94 4244.21 4947.24 5367.73 3875.05 3540.11 6200.54 3456.47 4652.01 5148.58 4199.45 7234.66 6599.66 4055.54 6098.95 4997.83 4893.49 3991.42 5325.44 5102.75 4200.09 4597.29 4498.25 5931.77 4188.87 5151.21 6574.95 6333.29 4477.04 5731.57 6408.83 5365.24 3930.79 4004.35 5226.97 5754.18 5180.76 3418.99 4480.95 5278.36 4409.63 5521.25 3661.9 3082.32 5370.85 5949.46 3658.37 3178.54 7440.72 5376.71 5703.6 5070.29 4807.28 4867.08 4266.03 5280.69 4713.74 4220.03 6923.84 5407.78 4084.49 5449.46 6179.96 6632.99 6113.54 5147.36 6260.79 3963.76 5528.53 6799.88 3062.43 5726.66 5426.78 5652.0 2967.38 4159.35 4237.98 6439.37 6045.22 4614.3 3532.3 5769.98 5067.46 3583.21 2221.99 2511.46 3580.58 4011.37 4863.01 2775.69 5356.79 4785.25 3619.79 5029.47 5424.46 6306.21 2978.76 4908.49 2040.66 7016.27 5884.9 3876.21 4673.35 5689.26 4992.42 6022.7 4940.84 4833.46 4809.67 7248.4 5280.12 3946.28 5984.81 5439.9 3498.16 4409.27 4640.06 5471.74 5421.64 3548.39 4858.51 4207.54 4886.12 6419.12 4976.12 4817.16 5453.98 5148.08 4388.63 4834.87 5760.22 5938.17 4795.43 5398.64 5097.95 6817.57 3614.96 3886.68 5703.74 4745.43 5662.55 4747.55 5737.92 4360.23 3056.7 3755.95 5293.51 4763.96 4446.06 3450.93 5008.63 5132.68 6595.03 4993.35 6218.95 5222.16 5107.23 5136.08 3776.94 5558.68 4765.02 5629.39 4448.13 2684.03 4768.61 2261.36 5075.55 5506.19 6719.94 5227.59 6166.29 5453.6 5703.07 5294.77 4662.43 4630.82 4043.66 4813.08 4540.86 5990.52 4835.83 5604.35 6477.91 3091.67 6420.81 4081.97 5401.99 5580.92 5973.33 4347.74 4009.62 5291.9 6505.78 5461.55 6519.43 5876.64 4857.84 4962.21 4684.44 4858.44 3468.42 3809.69 4771.13 5297.19 4351.38 5550.75 5933.7 5466.33 4444.97 5721.05 4247.69 4514.39 4588.99 4321.21 4344.34 3673.28 4928.27 3583.49 5052.84 3375.28 4366.74 5625.65 4301.61 3184.64 6107.89 4446.84 5660.55 3718.69 4514.79 3672.21 2216.82 4509.89 6752.75 5269.38 5108.06 3573.73 4693.52 4000.43 6853.04 3420.08 5831.96 4539.07 5464.68 6234.32 5591.76 4586.19 4585.31 6625.18 5323.91 4270.74 6293.89 4558.15 4983.39 5366.52 4690.55 5533.72 5533.42 4802.32 4010.57 4599.38 5246.47 6157.04 6191.29 4522.21 7422.36 5161.01 4950.67 4628.4 5832.37 4642.93 5409.63 4263.16 4709.05 3077.84 6024.75 6109.49 5860.67 5332.65 3764.1 6451.33 5413.31 6316.56 4332.87 4743.59 5208.14 4715.58 3317.83 4450.7 5151.52 5369.08 3101.75 4518.04 4766.06 2081.58 4874.18 5435.19 3298.2 4270.15 6865.76 6449.64 6464.8 4406.05 4749.59 4680.94 5799.69 5571.72 5236.43 3208.96 5285.07 7051.9 4184.23 4608.41 4144.57 5980.59 6834.41 6226.14 3796.15 3000.29 4209.31 5718.28 6242.79 5950.45 5713.03 5849.65 4165.21 5297.16 4936.96 5206.33 5530.49 5653.03 6192.0 4940.28 5885.28 3004.34 5607.3 3022.6 2928.82 4914.45 4811.76 4222.4 4698.87 4568.41 4912.04 3624.7 4691.91 4475.83 2685.81 4510.8 5889.35 5010.04 4570.98 5097.45 5825.38 4185.61 2761.07 5737.75 5742.47 3778.02 6552.21 5417.8 7132.12 3678.08 4836.16 5518.57 4187.31 5463.48 5730.33 3240.51 5545.46 4527.99 4376.7 4298.15 5190.61 8325.01 6051.83 4440.81 5941.9 3973.12 6642.76 4497.78 5567.93 4243.79 5987.42 4442.22 4669.06 3012.99 4811.32 6400.08 6184.88 5829.32 4396.25 3763.05 5092.24 5551.95 5549.49 3918.87 5423.42 2275.45 6605.86 5012.5 3562.79 7093.13 4953.1 5818.95 4093.99 3604.14 3940.49 4452.54 5089.1 2711.19 5828.35 5876.72 4028.32 4099.92 4884.59 3858.06 4680.14 4083.79 4187.94 5263.27 5021.77 5599.29 4801.8 7216.98 5271.02 7013.17 3805.67 4601.74 6506.86 5088.57 5580.34 5134.67 3852.6 5775.31 4215.0 4603.5 4481.76 5452.78 5065.26 4304.41 4892.44 5578.94 7610.49 4286.17 6579.31 5323.55 5375.1 5313.12 5351.56 4661.03 5160.59 3984.88 4732.09 5262.35 4320.42 4255.34 5064.79 5480.3 7509.24 4394.56 5896.26 4275.07 5388.78 4047.87 4573.72 5099.21 4917.99 5636.4 4367.78 5146.37 5670.0 4232.16 5300.96 5151.11 4344.51 5680.94 3781.77 5581.55 5193.01 4543.1 6550.44 3860.83 3764.06 5732.27 4523.39 5278.56 5434.47 6917.62 5829.22 5631.14 4343.78 5811.18 5433.65 4008.15 4887.76 7693.4 4286.49 4437.07 3449.37 6405.0 4659.16 5789.55 4633.05 4901.2 5711.62 4383.56 4990.79 5166.79 6479.39 2895.63 4516.53 4122.92 5079.22 5381.54 5810.77 5474.15 7519.2 6355.68 4511.7 4478.6 4304.63 4469.54 6300.92 4173.54 6038.68 5046.12 4807.4 4590.01 6101.86 5993.0 4803.57 5966.42 4110.59 4706.5 3332.49 5354.66 4647.67 4214.44 5375.12 4356.36 4787.97 3746.36 4777.03 3684.56 4246.61 6028.09 5452.36 4172.6 3804.5 6486.37 5498.42 5318.53 4281.98 7165.9 5344.83 3427.63 4146.81 4863.97 6342.48 6101.13 5756.75 5599.7 6969.28 3665.95 5698.96 4350.12 4095.75 5227.02 3603.51 4298.45 5222.51 6609.84 5135.96 3834.43 5658.37 4707.06 6074.94 3474.5 5491.37 4250.88 6348.03 3475.67 4792.39 7038.89 5146.37 4013.38 5067.56 6137.8 5263.3 3352.35 4909.65 3747.03 6523.86 2783.85 4326.48 3994.07 4219.94 5907.46 5491.9 4264.91 5399.29 4909.31 6522.59 4798.17 5425.98 5996.66 4405.42 4997.91 2995.67 3598.08 4599.81 5698.23 7300.58 4714.83 3608.06 6633.61 5484.36 3953.55 4277.24 4063.9 5291.05 4314.56 5161.1 3928.53 4619.2 5606.51 5740.65 5067.56 3834.47 6349.67 6329.53 6541.45 4227.41 5078.31 5391.48 4923.43 5131.15 4847.14 3950.27 5116.66 5378.23 5374.67 4981.43 6789.23 3989.7 5069.89 4215.2 4157.29 6813.72 5327.75 4609.02 4638.18 4196.37 3344.57 6448.66 5220.76 6945.98 5138.2 7046.11 5783.48 4449.98 4504.35 4840.44 5093.82 4587.67 4163.74 3924.14 4296.69 6238.32 3319.67 6471.42 5283.8 4076.59 4428.14 5164.1 6464.15 4972.17 6685.4 5699.53 4222.77 3783.54 5268.38 5527.23 4805.33 3863.67 4814.12 6193.08 6069.3 2735.53 5887.01 5116.6 5388.39 5335.47 4356.49 4526.81 5048.19 6799.23 6740.71 6487.56 4854.11 5971.22 5533.19 5417.21 6602.43 3568.28 6063.64 5522.21 3772.3 4855.01 4923.57 3340.09 5217.95 4867.7 2279.05 4829.35 4075.28 8137.11 5484.32 6650.77 5166.41 4067.96 7104.73 2596.96 5701.75 4350.15 4139.3 3516.27 4750.49 4263.78 4643.9 5228.75 6047.14 5009.83 5210.38 5717.8 3629.44 3566.79 5003.78 3299.24 6246.56 4741.28 2603.64 5107.0 6212.15 4783.07 4896.65 4946.23 6083.28 5211.6 4453.97 3556.79 3503.41 4701.5 7001.83 4771.65 5012.97 5589.37 5439.49 5951.81 6918.35 4834.3 6804.79 6372.13 5369.5 5404.01 6016.19 4124.49 4479.11 3230.13 5714.25 5325.96 4850.06 6332.01 7044.29 4234.18 4049.16 7085.01 5980.95 3936.95 6836.82 3862.77 4631.99 5168.35 3185.39 3728.18 5633.61 7122.87 4243.26 4153.84 4888.27 5119.86 4592.15 4901.44 4998.22 5096.43 6104.26 5583.61 6171.71 4986.71 7382.3 4022.56 5027.43 5522.75 6208.9 5602.53 6061.63 6545.43 6760.92 4711.04 4506.18 4824.12 6162.3 3272.75 4264.54 7043.44 4061.6 6502.97 4852.58 5806.31 5456.71 7317.04 6412.67 4036.91 6639.64 5212.43 5454.12 6348.54 4066.57 5642.35 5156.76 6357.47 6101.57 4891.38 5535.91 5955.86 6176.67 4848.46 5412.24 5016.02 2779.99 4920.21 4581.37 6942.34 5851.61 5478.11 6153.94 5526.31 3858.17 4740.98 5128.77 5797.36 5089.26 5084.17 3776.8 6156.21 2460.79 4653.83 3628.89 6589.82 4668.88 5867.64 4438.58 6059.93 5073.02 3472.91 4989.2 7144.05 2970.9 6542.5 4383.47 5971.21 6318.23 4206.98 4058.87 5174.75 5932.07 4984.46 5948.71 4793.65 2949.12 3856.53 4532.89 