# vtk DataFile Version 2.0
Time step 30
ASCII
DATASET UNSTRUCTURED_GRID
POINTS 5000 float
8528.8 146165.0 0
12438.8 145998.0 0
16747.5 145317.0 0
27670.4 143701.0 0
57005.2 145967.0 0
171831.0 145239.0 0
177734.0 145277.0 0
182939.0 144463.0 0
201748.0 146001.0 0
212985.0 146102.0 0
241170.0 146003.0 0
252679.0 145988.0 0
278881.0 145406.0 0
297319.0 145372.0 0
303664.0 146159.0 0
345896.0 146229.0 0
361816.0 145774.0 0
372012.0 143796.0 0
377030.0 145769.0 0
388131.0 145939.0 0
394018.0 145255.0 0
403649.0 144185.0 0
408586.0 145396.0 0
422737.0 145201.0 0
432480.0 144715.0 0
442090.0 146008.0 0
446253.0 145587.0 0
460242.0 146146.0 0
471629.0 145787.0 0
477063.0 144590.0 0
485844.0 144520.0 0
491674.0 146060.0 0
497601.0 144553.0 0
2398.27 146790.0 0
6059.73 149487.0 0
11085.1 150516.0 0
17330.2 151219.0 0
22243.6 146962.0 0
28516.4 150053.0 0
33200.8 146388.0 0
38182.5 146971.0 0
42701.2 147121.0 0
47473.4 147030.0 0
48276.8 151026.0 0
52137.1 147127.0 0
62763.5 147042.0 0
67994.7 147176.0 0
72702.2 146310.0 0
77500.0 147055.0 0
82500.0 147045.0 0
87407.8 146343.0 0
87907.6 151101.0 0
92500.0 147083.0 0
97193.3 147104.0 0
101293.0 147021.0 0
105947.0 146413.0 0
111936.0 146891.0 0
108243.0 151004.0 0
117850.0 147075.0 0
123330.0 147152.0 0
128345.0 147273.0 0
133427.0 146522.0 0
138123.0 147205.0 0
142500.0 147126.0 0
147500.0 147060.0 0
152501.0 147029.0 0
157589.0 146658.0 0
156863.0 150708.0 0
162560.0 146814.0 0
167011.0 146356.0 0
166511.0 151028.0 0
172971.0 150808.0 0
178375.0 150690.0 0
183532.0 149531.0 0
187394.0 146317.0 0
188603.0 150763.0 0
192499.0 147478.0 0
196080.0 146642.0 0
198250.0 150987.0 0
207651.0 146765.0 0
213693.0 150653.0 0
218128.0 147186.0 0
222480.0 147199.0 0
225795.0 146432.0 0
226803.0 150667.0 0
230434.0 146302.0 0
235810.0 147298.0 0
246501.0 148005.0 0
259052.0 146464.0 0
257261.0 151102.0 0
263773.0 147550.0 0
268741.0 146462.0 0
267066.0 151306.0 0
273935.0 146758.0 0
271615.0 150614.0 0
277069.0 151018.0 0
282030.0 148739.0 0
286326.0 147047.0 0
291718.0 147503.0 0
298248.0 150882.0 0
307731.0 148729.0 0
312126.0 146580.0 0
317928.0 147203.0 0
323244.0 147104.0 0
327580.0 147373.0 0
332206.0 146972.0 0
337222.0 146681.0 0
341019.0 147892.0 0
343306.0 150918.0 0
350688.0 148149.0 0
347750.0 151319.0 0
355261.0 147138.0 0
361443.0 151087.0 0
365116.0 150786.0 0
367954.0 147112.0 0
372930.0 150597.0 0
382609.0 146641.0 0
378820.0 150319.0 0
388373.0 151027.0 0
399199.0 146927.0 0
402996.0 150385.0 0
412475.0 147045.0 0
408385.0 149676.0 0
412862.0 150988.0 0
417500.0 147088.0 0
422127.0 149838.0 0
427272.0 146912.0 0
433426.0 149949.0 0
437537.0 147066.0 0
443214.0 150290.0 0
447601.0 149597.0 0
450666.0 146357.0 0
451944.0 150835.0 0
455209.0 146299.0 0
457174.0 151028.0 0
465794.0 146530.0 0
466600.0 151100.0 0
475182.0 151080.0 0
481305.0 147453.0 0
486590.0 150711.0 0
496837.0 150062.0 0
2284.21 151812.0 0
6740.35 154532.0 0
11844.2 156350.0 0
16324.0 156427.0 0
23002.6 152476.0 0
20503.3 156440.0 0
34966.5 151662.0 0
40338.9 151981.0 0
44461.7 152323.0 0
47586.4 155747.0 0
52500.0 152087.0 0
57994.6 151409.0 0
62849.4 152142.0 0
67505.2 151814.0 0
72117.5 151430.0 0
77500.0 152213.0 0
82116.1 151860.0 0
92500.0 152222.0 0
97183.9 151854.0 0
97548.3 156373.0 0
102467.0 151756.0 0
107924.0 155784.0 0
112500.0 152159.0 0
117500.0 152240.0 0
122500.0 152163.0 0
125865.0 156075.0 0
127727.0 151706.0 0
132494.0 152057.0 0
137520.0 152071.0 0
142774.0 151549.0 0
140994.0 155670.0 0
146928.0 151897.0 0
151939.0 151775.0 0
156246.0 155268.0 0
161298.0 151529.0 0
169997.0 155595.0 0
182187.0 154670.0 0
193570.0 151623.0 0
203920.0 151621.0 0
199972.0 156092.0 0
209356.0 151837.0 0
213300.0 155464.0 0
217602.0 152257.0 0
222034.0 152026.0 0
222564.0 156300.0 0
226872.0 155672.0 0
232207.0 151726.0 0
237688.0 152549.0 0
243285.0 152378.0 0
248460.0 152079.0 0
246844.0 156149.0 0
252676.0 152549.0 0
257735.0 155854.0 0
262325.0 151727.0 0
267486.0 155762.0 0
273044.0 155856.0 0
279879.0 155075.0 0
282828.0 152425.0 0
287500.0 152137.0 0
292909.0 151995.0 0
291020.0 156304.0 0
296737.0 155927.0 0
303117.0 151829.0 0
307443.0 152021.0 0
312501.0 152331.0 0
317482.0 152079.0 0
322434.0 151573.0 0
322511.0 155578.0 0
327500.0 152117.0 0
332500.0 152189.0 0
336511.0 156189.0 0
337712.0 151525.0 0
341412.0 155123.0 0
346844.0 155705.0 0
352668.0 152040.0 0
356026.0 155430.0 0
357758.0 151558.0 0
361259.0 155789.0 0
366513.0 154868.0 0
382005.0 151457.0 0
377674.0 156253.0 0
384355.0 154794.0 0
392423.0 156225.0 0
393552.0 151402.0 0
397216.0 156184.0 0
398135.0 151836.0 0
409241.0 155321.0 0
417517.0 151603.0 0
419140.0 156294.0 0
428324.0 151855.0 0
424118.0 154656.0 0
432247.0 155572.0 0
437509.0 152133.0 0
437338.0 156316.0 0
442353.0 155527.0 0
448269.0 154669.0 0
454172.0 156240.0 0
462428.0 152511.0 0
470193.0 152279.0 0
472372.0 155602.0 0
480798.0 152728.0 0
492077.0 152961.0 0
2238.62 157726.0 0
8050.27 160373.0 0
13471.4 160975.0 0
17751.7 160271.0 0
22416.3 160814.0 0
27040.7 156886.0 0
32614.4 156720.0 0
32068.9 161007.0 0
38260.4 156493.0 0
42967.4 156877.0 0
49063.3 160537.0 0
51798.8 157509.0 0
56552.7 157029.0 0
62113.2 157004.0 0
63616.2 161335.0 0
67695.4 156658.0 0
73696.3 156972.0 0
78211.3 157411.0 0
77068.9 161332.0 0
81954.7 156586.0 0
86960.5 156617.0 0
92531.5 156973.0 0
102630.0 157518.0 0
107686.0 161282.0 0
116732.0 156844.0 0
112494.0 157058.0 0
113112.0 161387.0 0
120857.0 156694.0 0
118138.0 161321.0 0
123419.0 160681.0 0
131159.0 157773.0 0
136446.0 157724.0 0
146307.0 156788.0 0
151835.0 158387.0 0
148001.0 161397.0 0
156827.0 160666.0 0
161704.0 157219.0 0
166528.0 159038.0 0
176294.0 156447.0 0
182233.0 160149.0 0
188049.0 156924.0 0
194262.0 156649.0 0
197223.0 161376.0 0
203054.0 161231.0 0
208111.0 156743.0 0
204288.0 157087.0 0
217709.0 157191.0 0
214360.0 161134.0 0
222026.0 160558.0 0
227510.0 161221.0 0
232445.0 157190.0 0
237423.0 156975.0 0
237869.0 160300.0 0
241793.0 157628.0 0
246215.0 161335.0 0
251787.0 157441.0 0
255874.0 160571.0 0
262717.0 156505.0 0
260339.0 160242.0 0
266354.0 160446.0 0
278362.0 160578.0 0
283557.0 157359.0 0
287218.0 157429.0 0
288759.0 160583.0 0
302236.0 157065.0 0
307702.0 156451.0 0
313209.0 157576.0 0
316251.0 161285.0 0
318191.0 156569.0 0
321073.0 160813.0 0
326813.0 157461.0 0
329892.0 161007.0 0
331856.0 157182.0 0
339780.0 160515.0 0
351892.0 156875.0 0
357350.0 159387.0 0
366554.0 159560.0 0
371102.0 156738.0 0
382814.0 160310.0 0
388338.0 157983.0 0
402857.0 156625.0 0
408060.0 160671.0 0
414410.0 157877.0 0
427682.0 157692.0 0
425653.0 161318.0 0
437117.0 160511.0 0
441815.0 161113.0 0
446528.0 159669.0 0
450851.0 160175.0 0
458987.0 157286.0 0
463180.0 157050.0 0
467517.0 157165.0 0
466982.0 161492.0 0
472599.0 160561.0 0
477749.0 156555.0 0
482621.0 157423.0 0
487506.0 158522.0 0
491507.0 157022.0 0
492123.0 160879.0 0
496592.0 156632.0 0
2182.12 162141.0 0
11900.3 164713.0 0
17158.9 165450.0 0
23049.9 166198.0 0
26985.7 162811.0 0
30222.1 165548.0 0
34873.0 166341.0 0
37585.7 161698.0 0
39761.9 165761.0 0
43201.8 161940.0 0
48576.3 165761.0 0
53807.2 162209.0 0
59221.9 161707.0 0
57211.7 166099.0 0
63067.6 166110.0 0
68064.9 162331.0 0
72603.0 161848.0 0
73398.3 165907.0 0
78299.2 166482.0 0
82136.2 161607.0 0
83590.5 166547.0 0
87334.1 161791.0 0
88394.8 166609.0 0
92269.3 162303.0 0
97732.6 161725.0 0
102768.0 162976.0 0
111305.0 165972.0 0
116639.0 166579.0 0
122097.0 165871.0 0
127500.0 162238.0 0
126930.0 166286.0 0
137738.0 161639.0 0
132690.0 162601.0 0
136576.0 166189.0 0
142523.0 161790.0 0
147011.0 165674.0 0
153417.0 163042.0 0
157940.0 166599.0 0
160406.0 162032.0 0
164429.0 162741.0 0
167049.0 165614.0 0
170842.0 161624.0 0
177032.0 163015.0 0
186625.0 162559.0 0
191646.0 162048.0 0
193693.0 166133.0 0
203175.0 166332.0 0
208747.0 163090.0 0
218718.0 162436.0 0
216322.0 165750.0 0
221177.0 166085.0 0
234328.0 161572.0 0
231984.0 166074.0 0
237943.0 165036.0 0
241753.0 162231.0 0
248031.0 166413.0 0
251520.0 162699.0 0
257729.0 165753.0 0
262639.0 163816.0 0
267591.0 166395.0 0
271759.0 162126.0 0
284358.0 162098.0 0
288836.0 165903.0 0
292983.0 162299.0 0
298941.0 162228.0 0
303985.0 162457.0 0
307500.0 162281.0 0
312166.0 162100.0 0
316971.0 165720.0 0
325849.0 162393.0 0
322301.0 166406.0 0
330943.0 166522.0 0
334357.0 162998.0 0
341516.0 166006.0 0
346088.0 161960.0 0
352843.0 162451.0 0
361675.0 161778.0 0
357891.0 165963.0 0
367106.0 164467.0 0
371934.0 162371.0 0
377880.0 163703.0 0
387369.0 162168.0 0
383270.0 166326.0 0
388205.0 166349.0 0
393045.0 162893.0 0
399509.0 161796.0 0
403056.0 165797.0 0
404319.0 161820.0 0
412350.0 162343.0 0
408164.0 165521.0 0
416950.0 161676.0 0
414681.0 165989.0 0
421364.0 162934.0 0
427476.0 165774.0 0
431061.0 161764.0 0
436119.0 165493.0 0
448324.0 165183.0 0
455413.0 162010.0 0
461207.0 161705.0 0
464976.0 166593.0 0
473883.0 165778.0 0
478850.0 162054.0 0
484708.0 162563.0 0
489147.0 163288.0 0
496754.0 163274.0 0
1482.5 166823.0 0
2749.23 170861.0 0
7150.86 166680.0 0
12667.7 169217.0 0
18087.1 171220.0 0
28646.7 169594.0 0
39130.1 170601.0 0
43678.5 167599.0 0
48687.7 171730.0 0
53131.5 168206.0 0
59716.7 171111.0 0
68314.2 167506.0 0
68287.3 171701.0 0
72214.7 169787.0 0
76320.9 171379.0 0
87887.2 171678.0 0
92505.7 167146.0 0
96906.9 171714.0 0
97237.4 167141.0 0
101196.0 167204.0 0
105586.0 166798.0 0
111043.0 170821.0 0
115385.0 171295.0 0
127440.0 171550.0 0
131217.0 166982.0 0
133300.0 171435.0 0
142212.0 167483.0 0
151800.0 167608.0 0
148388.0 171694.0 0
161441.0 171074.0 0
163660.0 167226.0 0
166774.0 170966.0 0
171004.0 167632.0 0
176728.0 169307.0 0
182933.0 167067.0 0
189204.0 166966.0 0
192410.0 171474.0 0
198249.0 167264.0 0
202628.0 170906.0 0
207322.0 168470.0 0
212116.0 167340.0 0
216383.0 171645.0 0
222685.0 171732.0 0
226331.0 167858.0 0
236021.0 170020.0 0
242844.0 166883.0 0
252899.0 166727.0 0
250909.0 170878.0 0
262833.0 169395.0 0
272699.0 168011.0 0
278480.0 167232.0 0
283574.0 166685.0 0
282085.0 170615.0 0
[...]
POINT_DATA 5000
SCALARS Radius float 1
LOOKUP_TABLE default
3979.26 3471.03 5253.55 5782.6 5379.87 6044.04 5415.48 5120.0 6182.6 5258.36 5906.14 7513.1 5580.89 6810.52 5840.26 6716.79 7613.27 5529.52 5255.32 5096.78 6756.95 6324.23 3843.58 4270.53 5191.63 4150.99 4216.92 5634.83 6268.1 4861.06 5320.28 6739.08 4797.52 4796.58 4298.67 5960.66 6608.73 5820.48 7034.11 4862.21 5113.21 3929.19 4107.03 4043.57 4478.15 5925.6 4501.51 4792.73 4736.58 4931.38 3485.26 6082.81 4329.05 4151.94 4049.23 5337.48 6124.89 4929.8 5708.81 5252.48 4780.03 5495.39 3996.0 3856.1 4665.12 3383.4 4133.88 4094.62 4834.9 3850.77 5546.39 5325.36 5484.83 5085.53 3863.18 5351.6 2356.98 4998.37 4715.55 5492.18 3951.75 5061.3 3642.12 3163.97 5542.27 5812.43 5122.66 5484.19 5254.28 4688.68 4436.4 5733.48 4517.56 4672.91 4182.53 5903.42 3588.44 5645.7 5176.86 4366.19 3672.51 6110.27 5561.06 5073.35 3615.22 5670.04 4380.59 3589.27 3997.1 3607.45 3260.67 5759.91 3038.33 4333.2 4951.03 7199.21 6037.08 4523.7 5091.39 4129.43 6142.94 3320.52 4727.24 4602.25 4194.5 5082.47 5344.25 5445.87 4593.7 4704.72 4177.94 4742.68 4571.7 4344.58 5896.46 5495.84 3784.5 6481.79 5374.51 7042.12 6326.39 4569.12 5873.69 4962.09 3999.48 5011.84 4359.62 6261.42 4502.5 3771.48 5499.11 4271.69 5681.38 4138.42 3708.04 5513.6 3240.09 4556.36 3191.99 4685.34 4382.74 5601.05 4651.28 3586.91 3103.0 3554.9 5481.78 4015.92 5542.21 4487.31 3936.02 5043.05 4044.71 5980.74 5109.54 4927.02 5945.65 5538.89 4730.36 5867.73 6059.59 5013.56 5701.86 4499.64 4375.68 4238.81 4468.59 5054.98 6030.06 5170.02 3557.27 5200.76 4927.31 4862.64 4402.52 4432.58 6684.56 3968.64 3955.56 3761.32 4118.05 5292.64 6166.5 5553.16 2938.66 4940.78 4231.61 4008.92 4003.05 3942.53 3379.84 4805.87 4827.82 5227.21 5697.78 5123.52 4091.31 4392.68 6372.62 4295.38 2240.39 7565.34 5923.5 4612.68 5293.9 4973.83 3912.37 6691.39 4790.08 5135.69 4763.45 5344.0 6045.46 3815.26 4245.72 5908.1 6048.7 6133.92 5022.8 3780.23 4166.08 5224.12 4819.73 4471.58 6098.14 4472.17 4203.26 5188.81 6946.21 2586.12 6057.22 5433.8 4011.77 4527.08 3633.87 5922.5 5198.77 3970.25 5987.17 6013.14 2765.2 5011.31 4901.41 5110.37 5664.98 5927.43 6355.42 3693.63 4384.42 4362.19 4516.43 5690.56 4948.92 5637.59 4937.14 5816.2 5693.81 4002.16 4174.52 6483.19 3829.13 6759.9 5418.62 7021.47 5416.38 5740.68 5926.61 4955.55 2720.68 3563.63 5836.15 4345.55 6704.06 5885.03 2837.58 3871.88 5325.02 5246.2 5017.13 5279.39 5185.34 3673.74 5205.43 7447.37 4688.67 2635.86 4385.06 5065.13 5936.02 5305.17 4290.3 4861.08 5399.73 5390.22 3888.21 4712.33 6038.78 4667.36 4254.17 5090.24 5615.42 5530.87 4281.49 6342.25 4187.56 4840.84 4020.32 4290.14 4156.38 5316.75 4541.21 4164.68 3719.84 4178.4 3095.48 5624.49 5762.59 4123.6 4850.14 5163.55 3382.7 3954.91 6817.32 4319.79 3637.61 6222.42 5654.31 4730.41 3745.84 5690.26 5062.71 4156.2 6125.34 5965.78 5347.48 4850.01 4810.12 5643.58 5147.67 3979.82 4292.06 5577.04 5138.31 5006.58 5264.06 4602.86 4659.59 6327.9 4048.37 5492.26 5244.78 5762.84 3115.91 3937.74 3307.12 4493.48 6084.86 5924.89 4778.34 4138.16 6894.71 3486.22 4684.5 3091.3 6230.49 6458.82 4601.27 5493.32 3641.64 4277.89 6051.14 3261.21 4195.44 5539.32 3653.41 6496.85 5600.93 3856.01 5541.59 4390.66 5728.85 4827.23 4911.47 6116.18 4924.6 6257.19 4733.32 7184.19 2899.43 2924.37 3867.67 4695.45 4660.72 6052.7 3921.18 5891.05 5308.1 6902.81 6644.76 5629.19 5655.21 4786.6 5740.84 6445.94 4310.18 5542.14 4218.06 7134.64 5978.9 4716.19 3629.62 4997.27 5514.76 4301.06 3456.98 4877.67 3066.13 6562.18 6006.16 7055.53 5669.65 5934.22 5339.78 4970.88 7092.87 4666.81 3703.1 6471.55 2965.01 5499.39 6643.85 5501.93 5463.38 4938.74 5607.14 4497.59 5975.63 4374.35 6396.74 5215.05 2775.04 3821.72 4986.77 5586.81 3688.8 4621.75 4548.16 3369.23 5449.18 4220.88 4515.71 6640.13 4749.8 5082.6 5478.92 5551.36 5094.44 4467.94 4414.54 4850.81 5789.98 6138.47 7054.71 5489.43 5573.7 5747.75 4727.62 5054.25 4796.33 7325.81 5280.17 5360.19 4794.96 4874.39 4124.71 5083.08 6337.56 5803.39 5863.59 4381.97 4024.3 3255.82 5555.28 5242.73 2812.98 4737.14 4065.69 5603.15 5556.96 3798.62 6392.01 3666.57 4907.89 4937.02 4073.93 6043.3 4645.41 5952.75 4433.59 4320.28 6122.55 2739.94 4931.53 5480.13 6308.71 6695.82 6405.76 3498.2 5105.16 5448.61 4302.5 4827.33 6009.88 5513.57 5013.67 5826.04 4538.95 4143.78 4763.66 4636.5 4940.42 4946.42 5923.4 5085.71 6116.33 5644.82 6343.14 5945.21 5750.71 5696.88 4831.47 3923.03 4643.85 4004.04 5252.34 4138.46 4274.61 2965.79 6898.19 6035.6 6318.18 4481.53 3948.17 5330.45 4551.24 4581.13 5358.59 3610.4 6387.01 5367.52 6519.71 3092.35 5210.03 5810.84 4230.54 5351.39 3748.24 6142.37 4655.49 4933.21 5375.47 6038.14 2540.31 6029.66 5527.54 5697.4 6038.2 4270.95 4055.8 5206.78 6425.26 5143.58 6186.19 4839.34 2980.99 6834.49 7933.0 5525.39 4455.12 3998.5 5938.34 5380.13 6394.38 5118.27 5169.36 5932.23 4686.65 5834.74 4479.66 5788.23 3043.85 5581.75 3599.45 6730.19 4907.06 5489.34 3735.44 5163.9 6332.36 6155.31 4223.33 5911.67 3323.28 5835.78 5794.24 4127.74 2476.04 4678.38 3942.07 7443.72 5050.65 3937.08 5260.34 5206.48 5729.23 5226.0 3365.82 5724.64 5965.15 4780.2 6090.91 5019.93 5081.78 6263.44 5774.97 5462.21 5470.77 3474.39 6062.05 4289.17 5564.02 6072.45 4410.55 5137.34 5423.0 3856.59 4219.07 5413.79 6202.55 4322.15 5025.39 4714.54 3629.96 5478.47 3320.11 5119.37 6061.47 6163.38 4566.18 4723.12 5120.49 5201.36 5262.61 6302.8 5409.61 5094.81 4005.44 5713.22 5555.88 6732.43 5028.96 3866.16 6362.12 4484.76 3778.1 4840.01 5152.36 4511.82 5611.2 5173.87 4894.16 5711.87 3372.79 4941.22 5791.61 3369.13 4669.66 4808.52 5367.2 5607.24 5461.13 4726.76 5839.13 5495.68 5002.48 5708.14 5537.72 3920.42 8332.24 4553.56 5329.64 6049.55 5709.62 5991.09 5133.97 6600.94 5371.02 6155.1 4709.35 6586.45 4373.3 4750.78 5029.78 4163.5 4888.6 5078.86 5100.1 3561.29 4963.34 4219.78 3295.83 3885.86 4459.28 4260.92 6250.23 5960.56 4118.84 4020.95 5862.86 6313.06 3493.7 6470.3 4200.03 6939.12 5082.74 6915.83 5092.37 6444.77 7099.43 5526.14 4287.63 5198.29 5077.33 4746.52 3689.45 5572.95 6338.89 5584.06 7111.16 5893.5 4547.19 5030.91 6022.17 3982.23 4583.31 3459.9 4853.39 4997.27 4964.09 4093.08 4809.42 5024.9 4306.53 5659.17 5972.06 4312.67 5861.71 4359.04 3183.98 3794.63 5017.78 4524.28 6175.81 4727.24 6677.09 5826.64 4220.65 6820.42 4816.2 6321.41 4896.52 4089.76 4751.02 3192.41 5184.56 5282.64 4715.72 5804.71 5046.33 4764.96 4242.52 5053.92 6352.26 3847.38 3818.59 4087.15 4863.72 4143.08 7500.97 6623.85 4262.82 5228.18 5102.36 4342.9 5065.11 5069.84 4051.44 4978.31 4241.89 5054.74 5941.72 4656.78 5126.91 3600.43 4788.58 5131.24 5196.67 5876.71 6262.72 3664.11 6515.84 2990.77 5882.65 4739.14 4918.77 5187.7 4371.99 4188.3 5235.29 4479.94 4255.31 5453.3 6413.02 4863.27 6049.79 5374.98 4719.7 4735.33 4406.4 5411.85 4844.57 4027.46 6314.07 5315.4 6449.45 3975.31 4044.45 3824.16 5125.78 3868.18 4373.47 5045.38 6723.16 5372.61 3686.21 3817.13 5507.24 5023.15 6851.54 4503.89 5806.08 4336.42 5243.29 4449.22 5543.27 4717.05 5287.2 6135.57 5998.38 5013.13 5423.8 4270.24 4989.15 4164.13 5015.69 4947.52 4305.57 6959.81 4829.35 5201.67 3791.79 4424.7 4754.05 5526.55 6084.93 5215.15 4987.87 3697.96 3315.57 4739.42 5020.12 5727.3 2631.9 5281.28 5356.51 4277.88 3057.03 4758.21 7228.46 3948.23 5978.82 5787.31 3927.99 5868.82 4050.9 4948.98 4099.77 5227.52 4414.48 4537.32 4981.9 4906.82 5687.83 5004.23 6496.67 5474.8 6607.87 5117.47 4721.32 4925.63 3293.56 4434.19 4623.61 5511.6 6261.75 5177.64 6134.99 4094.73 4407.9 3492.19 4584.5 4440.57 5122.63 4703.08 2315.64 6345.13 5274.19 5516.95 5313.22 4413.85 3999.94 4470.98 4864.22 5776.37 4516.28 3921.08 4190.31 3627.82 5678.96 5262.19 4244.9 5344.43 6070.58 5350.88 5130.91 5402.24 6480.17 6445.22 4377.07 3844.9 3813.22 5101.59 3963.86 5570.3 3848.93 4306.11 5935.47 7589.94 3130.65 5628.24 5856.11 3327.49 5992.26 4109.88 4234.94 3960.8 4562.29 4980.85 5080.66 3417.33 5110.45 4926.42 5248.77 4642.34 4083.97 4520.1 5153.74 5874.89 4293.03 5813.4 4389.21 4128.98 4925.44 6246.22 4951.47 5246.61 4307.28 4100.38 5344.77 4723.48 5538.93 4899.11 4745.45 7267.18 6255.18 4668.71 5269.18 6362.14 6719.88 4454.63 5266.5 4523.88 3279.1 4066.38 4403.98 4560.84 4729.43 4092.24 5163.02 4562.74 7144.24 5598.74 7493.3 6442.69 6320.71 4648.04 3464.83 6413.11 4305.16 3163.78 5092.28 5274.14 4903.82 5746.28 4152.85 4082.47 4453.64 4338.08 4517.73 4378.3 5469.47 4989.56 4718.54 2588.37 6736.03 5548.29 6766.43 5916.16 4390.41 5226.56 5599.49 4097.57 3905.51 5017.5 5563.79 3901.8 6171.13 5759.46 5083.41 7055.42 6048.86 4285.32 5490.43 6034.41 5452.83 4959.34 4948.5 4519.22 4527.02 3695.36 4564.34 4871.44 5076.35 6020.48 3402.32 5200.05 5903.66 4528.49 5004.67 5365.89 5419.37 4466.03 4511.54 5070.39 4923.9 5714.58 3329.99 5208.32 3296.27 4713.25 4607.02 4204.84 6243.0 4528.09 3895.51 4165.81 3556.85 5441.96 6291.51 3435.9 5174.89 5882.89 5370.52 4188.32 4652.29 5774.81 3746.31 5027.98 5097.87 4278.07 6475.1 4969.21 2691.29 6256.02 5320.92 4305.43 4406.1 5450.44 5034.59 4942.77 4263.33 5080.18 5912.61 5381.16 6193.35 6086.96 5233.78 5776.57 5046.21 5683.26 5894.61 5139.5 5944.09 4814.55 3527.05 5698.77 2477.07 4497.31 5529.42 5257.12 4965.89 5659.95 5551.9 2908.7 3757.34 6415.61 4687.64 4419.71 5660.16 3838.47 4541.8 6235.57 3623.87 5412.31 3087.09 6934.37 6113.95 4050.08 5452.42 5328.22 2395.5 5511.88 4512.11 5486.68 5683.61 5100.25 5022.28 5197.52 5178.99 5383.07 4531.14 4591.87 5013.42 3838.56 6552.22 5651.07 6248.81 6375.99 5273.35 5234.29 5313.66 2651.49 5512.23 5275.32 5409.33 4898.94 5196.0 4613.31 4973.78 4733.04 6119.09 3947.47 5091.68 7531.29 5069.25 5048.89 6673.96 3161.47 3991.03 6390.78 7435.25 4288.3 6826.57 4788.87 4495.87 6022.72 5498.32 5527.33 5346.27 5402.21 4989.09 2845.98 4880.14 5289.52 5314.85 3848.54 5941.4 6510.17 5742.65 5592.32 4402.67 4470.61 5565.13 4384.88 6887.27 3701.27 5653.9 4806.34 5612.21 4929.14 3979.54 5304.13 3306.14 5490.58 5833.06 4863.79 4923.41 3830.46 6031.67 5384.76 6138.12 4428.78 5243.43 4537.14 4345.67 4765.72 4642.66 4752.14 5329.59 4888.12 5037.06 5512.16 5175.29 3197.63 5842.56 5887.15 7480.41 3423.15 4890.5 3981.07 3731.84 4901.07 5186.3 6853.85 3497.9 4151.76 5941.61 4020.4 5782.48 3493.47 6248.6 3836.45 5443.58 4558.46 5805.86 6894.26 4470.4 4986.51 5339.38 6169.11 5615.35 4790.78 6422.84 4247.15 4502.18 5379.09 4602.85 5872.05 4853.02 4091.8 4645.58 5181.4 5670.2 5985.29 4247.23 4178.15 4268.65 4694.83 5509.42 4354.08 5788.66 5936.36 3903.75 4755.47 5935.03 5475.8 5314.69 4249.46 5965.81 3702.37 5660.85 4643.31 2330.66 4177.19 6917.52 3587.05 6229.37 6718.19 4982.31 4307.48 4425.84 7256.35 5331.02 4871.96 4863.23 3555.86 4631.83 4996.99 6008.49 4220.46 4287.53 5945.08 3169.67 4968.03 5395.14 4702.06 3967.48 6213.04 4689.15 3685.13 4655.16 5409.66 3867.19 5857.79 4039.91 5276.7 5036.58 6119.63 4950.97 4752.9 4287.16 4863.96 5191.08 5203.08 5374.07 5163.77 4588.7 4488.85 3766.55 4579.69 3554.48 6496.52 3436.15 5005.85 4216.17 6484.17 4721.02 4596.75 4254.37 4933.65 4031.78 6098.1 5708.99 4049.02 5346.68 5311.03 5255.12 4285.66 4896.11 4027.09 5172.53 5801.99 5210.48 4962.77 7552.94 6259.23 5088.44 4998.21 4711.62 4114.24 5349.31 4649.22 5394.55 5094.52 4256.43 4946.74 2682.24 4520.62 5928.32 5229.48 5475.7 4485.99 4016.18 5127.16 5435.74 4244.99 6050.81 5543.46 6185.89 3997.96 4750.17 3460.94 3990.25 3691.0 4752.51 4236.14 4407.87 5282.91 5282.51 3797.33 5945.89 4105.55 4800.69 6566.1 6065.22 6386.78 4456.39 4896.39 3633.79 6081.14 5480.83 4607.85 6070.3 5128.57 6000.7 5604.21 5204.04 3361.92 4750.58 6710.88 5235.11 6622.11 5211.38 4590.55 6790.73 5920.32 5251.4 5097.69 3988.3 6543.13 5149.72 5464.25 5411.02 5301.47 4617.55 5199.44 4062.5 4435.51 5683.95 6027.62 5010.2 5966.61 5711.11 4938.72 3374.08 3546.71 5768.57 5564.23 5950.04 5687.85 5296.29 4611.53 2681.29 5094.48 3872.61 4238.4 4135.62 6132.95 5534.94 4860.33 7644.38 4051.34 6101.92 5323.3 3627.55 4635.6 4256.67 4662.56 3457.48 5166.79 2976.22 3405.98 5417.15 3688.16 4681.72 4945.39 5996.33 3950.63 5415.19 4612.62 3619.07 5526.75 4275.57 6385.23 5327.45 2983.99 5560.26 2614.4 6363.92 6205.93 4439.35 5830.72 6184.4 3758.07 3828.81 4373.45 4082.57 5733.62 5169.9 4460.92 3004.16 4767.78 4042.28 5235.17 4421.12 4779.5 4340.76 5254.49 4221.28 4303.19 5514.84 3914.2 5421.53 5937.08 4135.08 5620.74 5233.29 4778.82 4312.56 4612.06 5467.84 5053.95 5926.11 6667.68 5767.9 5089.62 5869.4 4741.26 4186.6 4255.85 4732.09 6136.49 4356.25 4216.95 5776.96 5742.74 5486.48 4947.24 3645.12 5424.88 6200.54 5415.85 5148.58 4199.45 8659.64 5469.13 4233.8 5765.42 6123.03 4997.83 4893.49 4575.94 5325.44 5021.88 5956.65 4498.25 4188.87 3735.24 4231.83 2435.33 6401.43 4074.48 4558.47 5020.71 5997.88 5839.71 5576.92 4318.48 6408.83 5266.22 3930.79 5226.97 3685.13 3312.06 6004.68 3361.26 6799.4 6239.84 5865.39 4427.28 3931.07 6079.11 6430.39 7440.72 3949.6 5703.6 6326.18 5661.62 6631.19 6648.68 4467.04 4713.74 5626.61 5817.25 4084.49 5061.98 6632.99 4537.6 4923.24 4419.61 7177.44 4563.46 5309.98 6553.94 5255.18 5460.65 5463.41 5225.33 4929.75 4435.36 6649.96 5134.39 5784.3 4256.57 5442.32 6088.68 4643.56 4863.01 5657.36 6124.08 5029.47 6306.21 5266.01 5253.37 7016.27 6515.8 3876.21 3685.65 3701.16 4916.22 6022.7 5895.77 5750.07 4809.67 4757.74 6045.67 4209.49 3946.28 3821.94 4244.21 5367.73 3875.05 3540.11 3456.47 4652.01 7234.66 6599.66 4055.54 4976.12 6098.95 5453.98 3991.42 4388.63 5102.75 4200.09 4597.29 5931.77 5151.21 6574.95 6333.29 4477.04 5731.57 5703.74 5662.55 5737.92 5365.24 4004.35 4763.96 5754.18 5180.76 3418.99 4480.95 5278.36 4409.63 5521.25 3661.9 3082.32 5370.85 5949.46 3658.37 3178.54 5376.71 4448.13 5070.29 4807.28 4867.08 4266.03 5280.69 4220.03 6923.84 5407.78 5449.46 6179.96 6113.54 5147.36 6260.79 3963.76 5528.53 6799.88 3062.43 5726.66 5426.78 5652.0 2967.38 4159.35 6477.91 4237.98 6439.37 6045.22 4614.3 3532.3 5580.92 5769.98 5973.33 5067.46 3583.21 2221.99 2511.46 3580.58 4011.37 2775.69 5356.79 4785.25 3619.79 5876.64 5424.46 4857.84 2978.76 4908.49 2040.66 4962.21 5884.9 4673.35 5689.26 4992.42 4940.84 4351.38 4833.46 5933.7 7248.4 5280.12 5984.81 5439.9 3498.16 4409.27 4640.06 5471.74 5421.64 3548.39 3673.28 4858.51 4207.54 4886.12 6419.12 6107.89 4817.16 5148.08 4834.87 5760.22 5938.17 4795.43 5398.64 5097.95 6817.57 3614.96 3886.68 6853.04 4745.43 5831.96 4747.55 4360.23 3056.7 3755.95 6234.32 5293.51 4446.06 3450.93 5008.63 5132.68 6595.03 4993.35 6218.95 5222.16 5107.23 5136.08 3776.94 5558.68 4765.02 4010.57 5629.39 2684.03 6157.04 4768.61 2261.36 5075.55 5506.19 6719.94 4950.67 5227.59 6166.29 5453.6 5703.07 5294.77 4662.43 4709.05 4630.82 4043.66 4813.08 4540.86 5990.52 4835.83 5604.35 6316.56 4332.87 3091.67 6420.81 4081.97 5401.99 5151.52 4347.74 4009.62 5291.9 2081.58 6505.78 5461.55 6519.43 4684.44 4749.59 4858.44 3468.42 3809.69 5571.72 4771.13 7051.9 5297.19 4184.23 5550.75 6226.14 5466.33 4444.97 5721.05 4247.69 4514.39 4588.99 4321.21 4344.34 4928.27 3583.49 5052.84 3375.28 4366.74 5625.65 4301.61 3184.64 4446.84 5530.49 5660.55 3718.69 4514.79 3672.21 2216.82 4509.89 6752.75 5269.38 5607.3 5108.06 3573.73 4693.52 4222.4 4000.43 3420.08 4912.04 4539.07 5464.68 5591.76 4586.19 4585.31 6625.18 5323.91 4270.74 6293.89 4558.15 2761.07 4983.39 5366.52 4690.55 5533.72 5533.42 4802.32 3678.08 4599.38 5246.47 4187.31 6191.29 4522.21 7422.36 5161.01 4298.15 4628.4 5832.37 6051.83 4642.93 5409.63 4263.16 3077.84 6024.75 6109.49 5567.93 5860.67 5332.65 3764.1 6451.33 5413.31 6400.08 4743.59 5208.14 4715.58 3317.83 4450.7 3763.05 5092.24 5369.08 3101.75 4518.04 4766.06 4874.18 5435.19 3298.2 4270.15 6865.76 6449.64 6464.8 4406.05 4680.94 5799.69 5236.43 3208.96 5285.07 4608.41 4144.57 4187.94 5980.59 6834.41 3796.15 4801.8 3000.29 7216.98 5271.02 4209.31 5718.28 6242.79 5950.45 5713.03 5849.65 5134.67 4165.21 5297.16 4936.96 5206.33 5452.78 5653.03 5065.26 4304.41 6192.0 4940.28 5885.28 3004.34 3022.6 2928.82 4811.76 4914.45 4698.87 4568.41 4661.03 3624.7 4691.91 5262.35 4475.83 2685.81 4510.8 5889.35 5010.04 4394.56 4570.98 5097.45 4275.07 5825.38 4185.61 5737.75 4047.87 5742.47 3778.02 6552.21 5417.8 5146.37 7132.12 4836.16 5518.57 5151.11 5463.48 5730.33 3240.51 5545.46 4527.99 4376.7 5190.61 8325.01 3764.06 4440.81 5941.9 3973.12 5434.47 6642.76 5829.22 4497.78 4243.79 5987.42 5433.65 4442.22 4887.76 4669.06 3012.99 4811.32 4286.49 6184.88 5829.32 4396.25 5551.95 5549.49 3918.87 5423.42 2275.45 6605.86 5012.5 4383.56 3562.79 7093.13 4953.1 5818.95 4093.99 3604.14 3940.49 4452.54 5089.1 2711.19 5828.35 5876.72 4028.32 4099.92 4884.59 3858.06 4680.14 4083.79 5263.27 6300.92 5021.77 5599.29 4807.4 7013.17 3805.67 4601.74 6506.86 5088.57 5580.34 3852.6 5775.31 4215.0 4603.5 4481.76 4647.67 4356.36 4892.44 5578.94 7610.49 4286.17 6579.31 5323.55 5375.1 5313.12 5351.56 5160.59 3984.88 4732.09 4320.42 4255.34 5064.79 5480.3 7509.24 4146.81 5896.26 5388.78 6101.13 4573.72 5099.21 4917.99 5636.4 4367.78 4350.12 5227.02 5670.0 4232.16 5300.96 4344.51 5680.94 3781.77 5581.55 5193.01 4543.1 6550.44 3860.83 5732.27 4523.39 5278.56 6917.62 4013.38 5631.14 4343.78 5811.18 4909.65 4008.15 6523.86 7693.4 4326.48 4437.07 3449.37 5491.9 6405.0 4659.16 5789.55 4633.05 4901.2 5711.62 4990.79 5166.79 6479.39 2895.63 4516.53 4122.92 4997.91 5079.22 5381.54 5810.77 5474.15 7519.2 6355.68 4511.7 4478.6 3953.55 4304.63 4469.54 4314.56 4173.54 3928.53 6038.68 5046.12 3834.47 6349.67 4590.01 6101.86 5993.0 4803.57 5966.42 4110.59 4706.5 3332.49 5354.66 4214.44 5375.12 4787.97 3746.36 6789.23 4777.03 3684.56 4246.61 6028.09 5452.36 4172.6 3804.5 6486.37 5498.42 5318.53 3344.57 4281.98 7165.9 5344.83 7046.11 3427.63 4863.97 6342.48 5756.75 5599.7 6969.28 3665.95 5698.96 4095.75 3603.51 4298.45 5222.51 6609.84 5135.96 3834.43 5658.37 4707.06 6074.94 3474.5 5491.37 4250.88 3783.54 6348.03 3475.67 4792.39 7038.89 5146.37 4814.12 5067.56 6137.8 2735.53 5263.3 3352.35 3747.03 2783.85 4356.49 3994.07 4219.94 5907.46 4264.91 5399.29 4909.31 6522.59 4798.17 3568.28 5425.98 5996.66 4405.42 2995.67 3598.08 4599.81 5698.23 7300.58 4714.83 3608.06 6633.61 5484.36 4277.24 4063.9 5291.05 5161.1 4619.2 5606.51 5166.41 5740.65 5067.56 6329.53 4139.3 6541.45 4227.41 4750.49 5078.31 5391.48 4923.43 5131.15 4847.14 3950.27 5116.66 5378.23 3566.79 5374.67 4981.43 3989.7 4215.2 5069.89 4157.29 6813.72 5327.75 4609.02 4638.18 4196.37 6448.66 5220.76 4453.97 6945.98 5138.2 5783.48 4449.98 4504.35 4771.65 4840.44 5093.82 4587.67 5951.81 4163.74 3924.14 4296.69 6238.32 3319.67 6471.42 5283.8 4076.59 4428.14 5164.1 6464.15 4479.11 4972.17 6685.4 5699.53 4222.77 6332.01 5268.38 5527.23 4805.33 3863.67 5980.95 6193.08 6069.3 5887.01 5116.6 5388.39 5335.47 5633.61 4526.81 5048.19 6799.23 4888.27 6740.71 6487.56 4854.11 5971.22 5533.19 5417.21 6602.43 5583.61 6063.64 7382.3 5522.21 3772.3 4855.01 4923.57 3340.09 5217.95 4867.7 2279.05 4829.35 4075.28 8137.11 5484.32 6650.77 4067.96 7104.73 2596.96 5701.75 3272.75 4350.15 3516.27 4263.78 4643.9 5228.75 6047.14 5009.83 5210.38 5717.8 3629.44 5003.78 3299.24 6246.56 4741.28 4061.6 2603.64 5107.0 6212.15 4783.07 4896.65 4946.23 6083.28 5211.6 3556.79 5806.31 3503.41 7317.04 4701.5 7001.83 5012.97 5589.37 5439.49 6918.35 4834.3 6804.79 6372.13 5369.5 5404.01 6016.19 4124.49 3230.13 5714.25 5325.96 4850.06 7044.29 4234.18 4049.16 7085.01 3936.95 6153.94 6836.82 3862.77 4631.99 5168.35 3185.39 5128.77 3728.18 7122.87 5797.36 4243.26 4153.84 5119.86 4592.15 5084.17 4901.44 4998.22 5096.43 6156.21 6104.26 4653.83 6171.71 4986.71 4668.88 4022.56 5027.43 5522.75 5867.64 6208.9 6059.93 5602.53 6061.63 6545.43 6760.92 4711.04 4506.18 4824.12 6162.3 5971.21 4264.54 7043.44 6502.97 4852.58 5456.71 6412.67 4036.91 6639.64 5212.43 5454.12 6348.54 4066.57 5642.35 4206.98 5156.76 6357.47 6101.57 4891.38 5535.91 5955.86 6176.67 4848.46 5412.24 5016.02 2779.99 5887.38 4920.21 4581.37 6942.34 5851.61 5478.11 5526.31 3858.17 5030.15 4740.98 5089.26 3776.8 2460.79 3628.89 6589.82 4438.58 5073.02 3472.91 4989.2 7144.05 2970.9 6542.5 4383.47 6318.23 4058.87 5174.75 5932.07 4984.46 5948.71 4793.65 2949.12 