LAMMPS (17 Jan 2018)
###############################################
# General settings
###############################################

log         slab_vel.log
