atom_style  peri
units       si

###############################################
# Size, contact parameters
###############################################

#Elastic-Plastic Parameters: K G s00 alpha YieldStress
variable    K equal 5e6 #Bulk Modulus
variable    G equal 5e6 #Shear Modulus
variable    hor equal 2 #Horizon
variable    s00 equal 2000 #Bond Constant
variable    alpha equal 1e6 #Bond Constant
variable    Yield equal 1e6 #Yield Stress

variable    kn equal 1e6
variable    damp equal 0.0
variable    coeffFric equal .3
variable    kt equal 0.5*${kn}
variable    kt equal 0.5*1000000
variable    dens equal 900
variable    gravity equal 9.810

variable    omega equal 0.5*10^(-3)
variable    lambda equal 8.0*10^5

variable    waterDensity equal 1017.0

###############################################
# Geometry-related parameters
###############################################

variable    lx equal  50
variable    ly equal  ${lx}
variable    ly equal  50
variable    lz equal  ${lx}
variable    lz equal  50

###############################################
# Create box
###############################################

boundary    f f f
atom_modify	map array

variable    x0 equal -${lx}
variable    x0 equal -50
variable    x1 equal ${lx}
variable    x1 equal 50
variable    y0 equal -${ly}
variable    y0 equal -50
variable    y1 equal ${ly}
variable    y1 equal 50
variable    z0 equal -${lz}
variable    z0 equal -50
variable    z1 equal ${lz}
variable    z1 equal 50

region      boxreg block ${x0} ${x1} ${y0} ${y1} ${z0} ${z1} units box
region      boxreg block -50 ${x1} ${y0} ${y1} ${z0} ${z1} units box
region      boxreg block -50 50 ${y0} ${y1} ${z0} ${z1} units box
region      boxreg block -50 50 -50 ${y1} ${z0} ${z1} units box
region      boxreg block -50 50 -50 50 ${z0} ${z1} units box
region      boxreg block -50 50 -50 50 -50 ${z1} units box
region      boxreg block -50 50 -50 50 -50 50 units box
create_box  1 boxreg
Created orthogonal box = (-50 -50 -50) to (50 50 50)
  1 by 1 by 1 MPI processor grid

###############################################
# Create atoms
###############################################

include atom.include
create_atoms 1 single -50.00000000000000000000000000000000 -50.00000000000000000000000000000000 -1.57737516651322340344165695569245
Created 1 atoms
  Time spent = 2.28882e-05 secs
create_atoms 1 single -50.00000000000000000000000000000000 -48.00000000000000000000000000000000 -1.57737516651322340344165695569245
Created 1 atoms
  Time spent = 0.000571966 secs
create_atoms 1 single -50.00000000000000000000000000000000 -46.00000000000000000000000000000000 -1.57737516651322340344165695569245
Created 1 atoms
  Time spent = 1.90735e-06 secs
create_atoms 1 single -50.00000000000000000000000000000000 -44.00000000000000000000000000000000 -1.57737516651322340344165695569245
Created 1 atoms
  Time spent = 9.53674e-07 secs
create_atoms 1 single -50.00000000000000000000000000000000 -42.00000000000000000000000000000000 -1.57737516651322340344165695569245
Created 1 atoms
  Time spent = 1.19209e-06 secs
create_atoms 1 single -50.00000000000000000000000000000000 -40.00000000000000000000000000000000 -1.57737516651322340344165695569245
Created 1 atoms
  Time spent = 2.14577e-06 secs
create_atoms 1 single -50.00000000000000000000000000000000 -38.00000000000000000000000000000000 -1.57737516651322340344165695569245
Created 1 atoms
  Time spent = 9.53674e-07 secs
create_atoms 1 single -50.00000000000000000000000000000000 -36.00000000000000000000000000000000 -1.57737516651322340344165695569245
Created 1 atoms
  Time spent = 1.90735e-06 secs
create_atoms 1 single -50.00000000000000000000000000000000 -34.00000000000000000000000000000000 -1.57737516651322340344165695569245
Created 1 atoms
  Time spent = 9.53674e-07 secs
create_atoms 1 single -50.00000000000000000000000000000000 -32.00000000000000000000000000000000 -1.57737516651322340344165695569245
Created 1 atoms
  Time spent = 9.53674e-07 secs
create_atoms 1 single -50.00000000000000000000000000000000 -30.00000000000000000000000000000000 -1.57737516651322340344165695569245
Created 1 atoms
  Time spent = 1.90735e-06 secs
create_atoms 1 single -50.00000000000000000000000000000000 -28.00000000000000000000000000000000 -1.57737516651322340344165695569245
Created 1 atoms
  Time spent = 1.90735e-06 secs
create_atoms 1 single -50.00000000000000000000000000000000 -26.00000000000000000000000000000000 -1.57737516651322340344165695569245
Created 1 atoms
  Time spent = 2.86102e-06 secs
create_atoms 1 single -50.00000000000000000000000000000000 -24.00000000000000000000000000000000 -1.57737516651322340344165695569245
Created 1 atoms
  Time spent = 6.91414e-06 secs
create_atoms 1 single -50.00000000000000000000000000000000 -22.00000000000000000000000000000000 -1.57737516651322340344165695569245
Created 1 atoms
  Time spent = 3.09944e-06 secs
create_atoms 1 single -50.00000000000000000000000000000000 -20.00000000000000000000000000000000 -1.57737516651322340344165695569245
Created 1 atoms
  Time spent = 2.86102e-06 secs
create_atoms 1 single -50.00000000000000000000000000000000 -18.00000000000000000000000000000000 -1.57737516651322340344165695569245
Created 1 atoms
  Time spent = 3.09944e-06 secs
create_atoms 1 single -50.00000000000000000000000000000000 -16.00000000000000000000000000000000 -1.57737516651322340344165695569245
Created 1 atoms
  Time spent = 1.90735e-06 secs
create_atoms 1 single -50.00000000000000000000000000000000 -14.00000000000000000000000000000000 -1.57737516651322340344165695569245
Created 1 atoms
  Time spent = 1.90735e-06 secs
create_atoms 1 single -50.00000000000000000000000000000000 -12.00000000000000000000000000000000 -1.57737516651322340344165695569245
Created 1 atoms
  Time spent = 9.53674e-07 secs
create_atoms 1 single -50.00000000000000000000000000000000 -10.00000000000000000000000000000000 -1.57737516651322340344165695569245
Created 1 atoms
  Time spent = 9.53674e-07 secs
create_atoms 1 single -50.00000000000000000000000000000000 -8.00000000000000000000000000000000 -1.57737516651322340344165695569245
Created 1 atoms
  Time spent = 9.53674e-07 secs
create_atoms 1 single -50.00000000000000000000000000000000 -6.00000000000000000000000000000000 -1.57737516651322340344165695569245
Created 1 atoms
  Time spent = 1.19209e-06 secs
create_atoms 1 single -50.00000000000000000000000000000000 -4.00000000000000000000000000000000 -1.57737516651322340344165695569245
Created 1 atoms
  Time spent = 2.47955e-05 secs
create_atoms 1 single -50.00000000000000000000000000000000 -2.00000000000000000000000000000000 -1.57737516651322340344165695569245
Created 1 atoms
  Time spent = 8.10623e-06 secs
create_atoms 1 single -50.00000000000000000000000000000000 0.00000000000000000000000000000000 -1.57737516651322340344165695569245
Created 1 atoms
  Time spent = 8.10623e-06 secs
create_atoms 1 single -50.00000000000000000000000000000000 2.00000000000000000000000000000000 -1.57737516651322340344165695569245
Created 1 atoms
  Time spent = 4.1008e-05 secs
create_atoms 1 single -50.00000000000000000000000000000000 4.00000000000000000000000000000000 -1.57737516651322340344165695569245
Created 1 atoms
  Time spent = 6.91414e-06 secs
create_atoms 1 single -50.00000000000000000000000000000000 6.00000000000000000000000000000000 -1.57737516651322340344165695569245
Created 1 atoms
  Time spent = 3.8147e-06 secs
create_atoms 1 single -50.00000000000000000000000000000000 8.00000000000000000000000000000000 -1.57737516651322340344165695569245
Created 1 atoms
  Time spent = 2.14577e-06 secs
create_atoms 1 single -50.00000000000000000000000000000000 10.00000000000000000000000000000000 -1.57737516651322340344165695569245
Created 1 atoms
  Time spent = 2.14577e-06 secs
create_atoms 1 single -50.00000000000000000000000000000000 12.00000000000000000000000000000000 -1.57737516651322340344165695569245
Created 1 atoms
  Time spent = 9.53674e-07 secs
create_atoms 1 single -50.00000000000000000000000000000000 14.00000000000000000000000000000000 -1.57737516651322340344165695569245
Created 1 atoms
  Time spent = 9.53674e-07 secs
create_atoms 1 single -50.00000000000000000000000000000000 16.00000000000000000000000000000000 -1.57737516651322340344165695569245
Created 1 atoms
  Time spent = 1.90735e-06 secs
create_atoms 1 single -50.00000000000000000000000000000000 18.00000000000000000000000000000000 -1.57737516651322340344165695569245
Created 1 atoms
  Time spent = 9.53674e-07 secs
create_atoms 1 single -50.00000000000000000000000000000000 20.00000000000000000000000000000000 -1.57737516651322340344165695569245
Created 1 atoms
  Time spent = 1.90735e-06 secs
create_atoms 1 single -50.00000000000000000000000000000000 22.00000000000000000000000000000000 -1.57737516651322340344165695569245
Created 1 atoms
  Time spent = 2.14577e-06 secs
create_atoms 1 single -50.00000000000000000000000000000000 24.00000000000000000000000000000000 -1.57737516651322340344165695569245
Created 1 atoms
  Time spent = 2.14577e-06 secs
create_atoms 1 single -50.00000000000000000000000000000000 26.00000000000000000000000000000000 -1.57737516651322340344165695569245
Created 1 atoms
  Time spent = 9.53674e-07 secs
create_atoms 1 single -50.00000000000000000000000000000000 28.00000000000000000000000000000000 -1.57737516651322340344165695569245
Created 1 atoms
  Time spent = 9.53674e-07 secs
create_atoms 1 single -50.00000000000000000000000000000000 30.00000000000000000000000000000000 -1.57737516651322340344165695569245
Created 1 atoms
  Time spent = 1.90735e-06 secs
create_atoms 1 single -50.00000000000000000000000000000000 32.00000000000000000000000000000000 -1.57737516651322340344165695569245
Created 1 atoms
  Time spent = 9.53674e-07 secs
create_atoms 1 single -50.00000000000000000000000000000000 34.00000000000000000000000000000000 -1.57737516651322340344165695569245
Created 1 atoms
  Time spent = 1.90735e-06 secs
create_atoms 1 single -50.00000000000000000000000000000000 36.00000000000000000000000000000000 -1.57737516651322340344165695569245
Created 1 atoms
  Time spent = 9.53674e-07 secs
create_atoms 1 single -50.00000000000000000000000000000000 38.00000000000000000000000000000000 -1.57737516651322340344165695569245
Created 1 atoms
  Time spent = 2.14577e-06 secs
create_atoms 1 single -50.00000000000000000000000000000000 40.00000000000000000000000000000000 -1.57737516651322340344165695569245
Created 1 atoms
  Time spent = 1.19209e-06 secs
create_atoms 1 single -50.00000000000000000000000000000000 42.00000000000000000000000000000000 -1.57737516651322340344165695569245
Created 1 atoms
  Time spent = 9.53674e-07 secs
create_atoms 1 single -50.00000000000000000000000000000000 44.00000000000000000000000000000000 -1.57737516651322340344165695569245
Created 1 atoms
  Time spent = 1.90735e-06 secs
create_atoms 1 single -50.00000000000000000000000000000000 46.00000000000000000000000000000000 -1.57737516651322340344165695569245
Created 1 atoms
  Time spent = 9.53674e-07 secs
create_atoms 1 single -50.00000000000000000000000000000000 48.00000000000000000000000000000000 -1.57737516651322340344165695569245
Created 1 atoms
  Time spent = 9.53674e-07 secs
create_atoms 1 single -48.00000000000000000000000000000000 -50.00000000000000000000000000000000 -1.57737516651322340344165695569245
Created 1 atoms
  Time spent = 1.90735e-06 secs
create_atoms 1 single -48.00000000000000000000000000000000 -48.00000000000000000000000000000000 -1.57737516651322340344165695569245
Created 1 atoms
  Time spent = 9.53674e-07 secs
create_atoms 1 single -48.00000000000000000000000000000000 -46.00000000000000000000000000000000 -1.57737516651322340344165695569245
Created 1 atoms
  Time spent = 2.14577e-06 secs
create_atoms 1 single -48.00000000000000000000000000000000 -44.00000000000000000000000000000000 -1.57737516651322340344165695569245
Created 1 atoms
  Time spent = 2.14577e-06 secs
create_atoms 1 single -48.00000000000000000000000000000000 -42.00000000000000000000000000000000 -1.57737516651322340344165695569245
Created 1 atoms
  Time spent = 9.53674e-07 secs
create_atoms 1 single -48.00000000000000000000000000000000 -40.00000000000000000000000000000000 -1.57737516651322340344165695569245
Created 1 atoms
  Time spent = 1.90735e-06 secs
create_atoms 1 single -48.00000000000000000000000000000000 -38.00000000000000000000000000000000 -1.57737516651322340344165695569245
Created 1 atoms
  Time spent = 1.90735e-06 secs
create_atoms 1 single -48.00000000000000000000000000000000 -36.00000000000000000000000000000000 -1.57737516651322340344165695569245
Created 1 atoms
  Time spent = 9.53674e-07 secs
create_atoms 1 single -48.00000000000000000000000000000000 -34.00000000000000000000000000000000 -1.57737516651322340344165695569245
Created 1 atoms
  Time spent = 9.53674e-07 secs
create_atoms 1 single -48.00000000000000000000000000000000 -32.00000000000000000000000000000000 -1.57737516651322340344165695569245
Created 1 atoms
  Time spent = 2.14577e-06 secs
create_atoms 1 single -48.00000000000000000000000000000000 -30.00000000000000000000000000000000 -1.57737516651322340344165695569245
Created 1 atoms
  Time spent = 1.90735e-06 secs
create_atoms 1 single -48.00000000000000000000000000000000 -28.00000000000000000000000000000000 -1.57737516651322340344165695569245
Created 1 atoms
  Time spent = 1.90735e-06 secs
create_atoms 1 single -48.00000000000000000000000000000000 -26.00000000000000000000000000000000 -1.57737516651322340344165695569245
Created 1 atoms
  Time spent = 9.53674e-07 secs
create_atoms 1 single -48.00000000000000000000000000000000 -24.00000000000000000000000000000000 -1.57737516651322340344165695569245
Created 1 atoms
  Time spent = 2.14577e-06 secs
create_atoms 1 single -48.00000000000000000000000000000000 -22.00000000000000000000000000000000 -1.57737516651322340344165695569245
Created 1 atoms
  Time spent = 9.53674e-07 secs
create_atoms 1 single -48.00000000000000000000000000000000 -20.00000000000000000000000000000000 -1.57737516651322340344165695569245
Created 1 atoms
  Time spent = 2.14577e-06 secs
create_atoms 1 single -48.00000000000000000000000000000000 -18.00000000000000000000000000000000 -1.57737516651322340344165695569245
Created 1 atoms
  Time spent = 1.19209e-06 secs
create_atoms 1 single -48.00000000000000000000000000000000 -16.00000000000000000000000000000000 -1.57737516651322340344165695569245
Created 1 atoms
  Time spent = 1.90735e-06 secs
create_atoms 1 single -48.00000000000000000000000000000000 -14.00000000000000000000000000000000 -1.57737516651322340344165695569245
Created 1 atoms
  Time spent = 1.90735e-06 secs
create_atoms 1 single -48.00000000000000000000000000000000 -12.00000000000000000000000000000000 -1.57737516651322340344165695569245
Created 1 atoms
  Time spent = 9.53674e-07 secs
create_atoms 1 single -48.00000000000000000000000000000000 -10.00000000000000000000000000000000 -1.57737516651322340344165695569245
Created 1 atoms
  Time spent = 1.90735e-06 secs
create_atoms 1 single -48.00000000000000000000000000000000 -8.00000000000000000000000000000000 -1.57737516651322340344165695569245
Created 1 atoms
  Time spent = 1.90735e-06 secs
create_atoms 1 single -48.00000000000000000000000000000000 -6.00000000000000000000000000000000 -1.57737516651322340344165695569245
Created 1 atoms
  Time spent = 1.90735e-06 secs
create_atoms 1 single -48.00000000000000000000000000000000 -4.00000000000000000000000000000000 -1.57737516651322340344165695569245
Created 1 atoms
  Time spent = 1.90735e-06 secs
create_atoms 1 single -48.00000000000000000000000000000000 -2.00000000000000000000000000000000 -1.57737516651322340344165695569245
Created 1 atoms
  Time spent = 1.19209e-06 secs
create_atoms 1 single -48.00000000000000000000000000000000 0.00000000000000000000000000000000 -1.57737516651322340344165695569245
Created 1 atoms
  Time spent = 2.14577e-06 secs
create_atoms 1 single -48.00000000000000000000000000000000 2.00000000000000000000000000000000 -1.57737516651322340344165695569245
Created 1 atoms
  Time spent = 2.14577e-06 secs
create_atoms 1 single -48.00000000000000000000000000000000 4.00000000000000000000000000000000 -1.57737516651322340344165695569245
Created 1 atoms
  Time spent = 1.90735e-06 secs
create_atoms 1 single -48.00000000000000000000000000000000 6.00000000000000000000000000000000 -1.57737516651322340344165695569245
Created 1 atoms
  Time spent = 9.53674e-07 secs
create_atoms 1 single -48.00000000000000000000000000000000 8.00000000000000000000000000000000 -1.57737516651322340344165695569245
Created 1 atoms
  Time spent = 1.90735e-06 secs
create_atoms 1 single -48.00000000000000000000000000000000 10.00000000000000000000000000000000 -1.57737516651322340344165695569245
Created 1 atoms
  Time spent = 2.14577e-06 secs
create_atoms 1 single -48.00000000000000000000000000000000 12.00000000000000000000000000000000 -1.57737516651322340344165695569245
Created 1 atoms
  Time spent = 9.53674e-07 secs
create_atoms 1 single -48.00000000000000000000000000000000 14.00000000000000000000000000000000 -1.57737516651322340344165695569245
Created 1 atoms
  Time spent = 1.90735e-06 secs
create_atoms 1 single -48.00000000000000000000000000000000 16.00000000000000000000000000000000 -1.57737516651322340344165695569245
Created 1 atoms
  Time spent = 9.53674e-07 secs
create_atoms 1 single -48.00000000000000000000000000000000 18.00000000000000000000000000000000 -1.57737516651322340344165695569245
Created 1 atoms
  Time spent = 2.14577e-06 secs
create_atoms 1 single -48.00000000000000000000000000000000 20.00000000000000000000000000000000 -1.57737516651322340344165695569245
Created 1 atoms
  Time spent = 1.00136e-05 secs
create_atoms 1 single -48.00000000000000000000000000000000 22.00000000000000000000000000000000 -1.57737516651322340344165695569245
Created 1 atoms
  Time spent = 5.00679e-06 secs
create_atoms 1 single -48.00000000000000000000000000000000 24.00000000000000000000000000000000 -1.57737516651322340344165695569245
Created 1 atoms
  Time spent = 3.8147e-06 secs
create_atoms 1 single -48.00000000000000000000000000000000 26.00000000000000000000000000000000 -1.57737516651322340344165695569245
Created 1 atoms
  Time spent = 4.05312e-06 secs
create_atoms 1 single -48.00000000000000000000000000000000 28.00000000000000000000000000000000 -1.57737516651322340344165695569245
Created 1 atoms
  Time spent = 3.09944e-06 secs
create_atoms 1 single -48.00000000000000000000000000000000 30.00000000000000000000000000000000 -1.57737516651322340344165695569245
Created 1 atoms
  Time spent = 2.86102e-06 secs
create_atoms 1 single -48.00000000000000000000000000000000 32.00000000000000000000000000000000 -1.57737516651322340344165695569245
Created 1 atoms
  Time spent = 3.09944e-06 secs
create_atoms 1 single -48.00000000000000000000000000000000 34.00000000000000000000000000000000 -1.57737516651322340344165695569245
Created 1 atoms
  Time spent = 3.09944e-06 secs
create_atoms 1 single -48.00000000000000000000000000000000 36.00000000000000000000000000000000 -1.57737516651322340344165695569245
Created 1 atoms
  Time spent = 4.05312e-06 secs
create_atoms 1 single -48.00000000000000000000000000000000 38.00000000000000000000000000000000 -1.57737516651322340344165695569245
Created 1 atoms
  Time spent = 1.90735e-06 secs
create_atoms 1 single -48.00000000000000000000000000000000 40.00000000000000000000000000000000 -1.57737516651322340344165695569245
Created 1 atoms
  Time spent = 1.90735e-06 secs
create_atoms 1 single -48.00000000000000000000000000000000 42.00000000000000000000000000000000 -1.57737516651322340344165695569245
Created 1 atoms
  Time spent = 1.90735e-06 secs
create_atoms 1 single -48.00000000000000000000000000000000 44.00000000000000000000000000000000 -1.57737516651322340344165695569245
Created 1 atoms
  Time spent = 1.90735e-06 secs
create_atoms 1 single -48.00000000000000000000000000000000 46.00000000000000000000000000000000 -1.57737516651322340344165695569245
Created 1 atoms
  Time spent = 9.53674e-07 secs
create_atoms 1 single -48.00000000000000000000000000000000 48.00000000000000000000000000000000 -1.57737516651322340344165695569245
Created 1 atoms
  Time spent = 9.53674e-07 secs
create_atoms 1 single -46.00000000000000000000000000000000 -50.00000000000000000000000000000000 -1.57737516651322340344165695569245
Created 1 atoms
  Time spent = 1.90735e-06 secs
create_atoms 1 single -46.00000000000000000000000000000000 -48.00000000000000000000000000000000 -1.57737516651322340344165695569245
Created 1 atoms
  Time spent = 1.90735e-06 secs
create_atoms 1 single -46.00000000000000000000000000000000 -46.00000000000000000000000000000000 -1.57737516651322340344165695569245
Created 1 atoms
  Time spent = 1.90735e-06 secs
create_atoms 1 single -46.00000000000000000000000000000000 -44.00000000000000000000000000000000 -1.57737516651322340344165695569245
Created 1 atoms
  Time spent = 1.90735e-06 secs
create_atoms 1 single -46.00000000000000000000000000000000 -42.00000000000000000000000000000000 -1.57737516651322340344165695569245
Created 1 atoms
  Time spent = 1.90735e-06 secs
create_atoms 1 single -46.00000000000000000000000000000000 -40.00000000000000000000000000000000 -1.57737516651322340344165695569245
Created 1 atoms
  Time spent = 9.53674e-07 secs
create_atoms 1 single -46.00000000000000000000000000000000 -38.00000000000000000000000000000000 -1.57737516651322340344165695569245
Created 1 atoms
  Time spent = 2.14577e-06 secs
create_atoms 1 single -46.00000000000000000000000000000000 -36.00000000000000000000000000000000 -1.57737516651322340344165695569245
Created 1 atoms
  Time spent = 1.19209e-06 secs
create_atoms 1 single -46.00000000000000000000000000000000 -34.00000000000000000000000000000000 -1.57737516651322340344165695569245
Created 1 atoms
  Time spent = 1.19209e-06 secs
create_atoms 1 single -46.00000000000000000000000000000000 -32.00000000000000000000000000000000 -1.57737516651322340344165695569245
Created 1 atoms
  Time spent = 9.53674e-07 secs
create_atoms 1 single -46.00000000000000000000000000000000 -30.00000000000000000000000000000000 -1.57737516651322340344165695569245
Created 1 atoms
  Time spent = 1.90735e-06 secs
create_atoms 1 single -46.00000000000000000000000000000000 -28.00000000000000000000000000000000 -1.57737516651322340344165695569245
Created 1 atoms
  Time spent = 9.53674e-07 secs
create_atoms 1 single -46.00000000000000000000000000000000 -26.00000000000000000000000000000000 -1.57737516651322340344165695569245
Created 1 atoms
  Time spent = 1.90735e-06 secs
create_atoms 1 single -46.00000000000000000000000000000000 -24.00000000000000000000000000000000 -1.57737516651322340344165695569245
Created 1 atoms
  Time spent = 9.53674e-07 secs
create_atoms 1 single -46.00000000000000000000000000000000 -22.00000000000000000000000000000000 -1.57737516651322340344165695569245
Created 1 atoms
  Time spent = 1.90735e-06 secs
create_atoms 1 single -46.00000000000000000000000000000000 -20.00000000000000000000000000000000 -1.57737516651322340344165695569245
Created 1 atoms
  Time spent = 1.90735e-06 secs
create_atoms 1 single -46.00000000000000000000000000000000 -18.00000000000000000000000000000000 -1.57737516651322340344165695569245
Created 1 atoms
  Time spent = 1.90735e-06 secs
create_atoms 1 single -46.00000000000000000000000000000000 -16.00000000000000000000000000000000 -1.57737516651322340344165695569245
Created 1 atoms
  Time spent = 1.90735e-06 secs
create_atoms 1 single -46.00000000000000000000000000000000 -14.00000000000000000000000000000000 -1.57737516651322340344165695569245
Created 1 atoms
  Time spent = 1.90735e-06 secs
create_atoms 1 single -46.00000000000000000000000000000000 -12.00000000000000000000000000000000 -1.57737516651322340344165695569245
Created 1 atoms
  Time spent = 1.90735e-06 secs
create_atoms 1 single -46.00000000000000000000000000000000 -10.00000000000000000000000000000000 -1.57737516651322340344165695569245
Created 1 atoms
  Time spent = 1.90735e-06 secs
create_atoms 1 single -46.00000000000000000000000000000000 -8.00000000000000000000000000000000 -1.57737516651322340344165695569245
Created 1 atoms
  Time spent = 1.90735e-06 secs
create_atoms 1 single -46.00000000000000000000000000000000 -6.00000000000000000000000000000000 -1.57737516651322340344165695569245
Created 1 atoms
  Time spent = 1.90735e-06 secs
create_atoms 1 single -46.00000000000000000000000000000000 -4.00000000000000000000000000000000 -1.57737516651322340344165695569245
Created 1 atoms
  Time spent = 2.14577e-06 secs
create_atoms 1 single -46.00000000000000000000000000000000 -2.00000000000000000000000000000000 -1.57737516651322340344165695569245
Created 1 atoms
  Time spent = 2.14577e-06 secs
create_atoms 1 single -46.00000000000000000000000000000000 0.00000000000000000000000000000000 -1.57737516651322340344165695569245
Created 1 atoms
  Time spent = 1.90735e-06 secs
create_atoms 1 single -46.00000000000000000000000000000000 2.00000000000000000000000000000000 -1.57737516651322340344165695569245
Created 1 atoms
  Time spent = 1.90735e-06 secs
create_atoms 1 single -46.00000000000000000000000000000000 4.00000000000000000000000000000000 -1.57737516651322340344165695569245
Created 1 atoms
  Time spent = 1.90735e-06 secs
create_atoms 1 single -46.00000000000000000000000000000000 6.00000000000000000000000000000000 -1.57737516651322340344165695569245
Created 1 atoms
  Time spent = 1.90735e-06 secs
create_atoms 1 single -46.00000000000000000000000000000000 8.00000000000000000000000000000000 -1.57737516651322340344165695569245
Created 1 atoms
  Time spent = 1.90735e-06 secs
create_atoms 1 single -46.00000000000000000000000000000000 10.00000000000000000000000000000000 -1.57737516651322340344165695569245
Created 1 atoms
  Time spent = 1.90735e-06 secs
create_atoms 1 single -46.00000000000000000000000000000000 12.00000000000000000000000000000000 -1.57737516651322340344165695569245
Created 1 atoms
  Time spent = 1.90735e-06 secs
create_atoms 1 single -46.00000000000000000000000000000000 14.00000000000000000000000000000000 -1.57737516651322340344165695569245
Created 1 atoms
  Time spent = 1.90735e-06 secs
create_atoms 1 single -46.00000000000000000000000000000000 16.00000000000000000000000000000000 -1.57737516651322340344165695569245
Created 1 atoms
  Time spent = 1.90735e-06 secs
create_atoms 1 single -46.00000000000000000000000000000000 18.00000000000000000000000000000000 -1.57737516651322340344165695569245
Created 1 atoms
  Time spent = 1.90735e-06 secs
create_atoms 1 single -46.00000000000000000000000000000000 20.00000000000000000000000000000000 -1.57737516651322340344165695569245
Created 1 atoms
  Time spent = 1.90735e-06 secs
create_atoms 1 single -46.00000000000000000000000000000000 22.00000000000000000000000000000000 -1.57737516651322340344165695569245
Created 1 atoms
  Time spent = 1.90735e-06 secs
create_atoms 1 single -46.00000000000000000000000000000000 24.00000000000000000000000000000000 -1.57737516651322340344165695569245
Created 1 atoms
  Time spent = 1.90735e-06 secs
create_atoms 1 single -46.00000000000000000000000000000000 26.00000000000000000000000000000000 -1.57737516651322340344165695569245
Created 1 atoms
  Time spent = 1.90735e-06 secs
create_atoms 1 single -46.00000000000000000000000000000000 28.00000000000000000000000000000000 -1.57737516651322340344165695569245
Created 1 atoms
  Time spent = 1.90735e-06 secs
create_atoms 1 single -46.00000000000000000000000000000000 30.00000000000000000000000000000000 -1.57737516651322340344165695569245
Created 1 atoms
  Time spent = 1.90735e-06 secs
create_atoms 1 single -46.00000000000000000000000000000000 32.00000000000000000000000000000000 -1.57737516651322340344165695569245
Created 1 atoms
  Time spent = 1.90735e-06 secs
create_atoms 1 single -46.00000000000000000000000000000000 34.00000000000000000000000000000000 -1.57737516651322340344165695569245
Created 1 atoms
  Time spent = 1.90735e-06 secs
create_atoms 1 single -46.00000000000000000000000000000000 36.00000000000000000000000000000000 -1.57737516651322340344165695569245
Created 1 atoms
  Time spent = 1.90735e-06 secs
create_atoms 1 single -46.00000000000000000000000000000000 38.00000000000000000000000000000000 -1.57737516651322340344165695569245
Created 1 atoms
  Time spent = 1.90735e-06 secs
create_atoms 1 single -46.00000000000000000000000000000000 40.00000000000000000000000000000000 -1.57737516651322340344165695569245
Created 1 atoms
  Time spent = 1.90735e-06 secs
create_atoms 1 single -46.00000000000000000000000000000000 42.00000000000000000000000000000000 -1.57737516651322340344165695569245
Created 1 atoms
  Time spent = 1.90735e-06 secs
create_atoms 1 single -46.00000000000000000000000000000000 44.00000000000000000000000000000000 -1.57737516651322340344165695569245
Created 1 atoms
  Time spent = 1.90735e-06 secs
create_atoms 1 single -46.00000000000000000000000000000000 46.00000000000000000000000000000000 -1.57737516651322340344165695569245
Created 1 atoms
  Time spent = 1.90735e-06 secs
create_atoms 1 single -46.00000000000000000000000000000000 48.00000000000000000000000000000000 -1.57737516651322340344165695569245
Created 1 atoms
  Time spent = 1.90735e-06 secs
create_atoms 1 single -44.00000000000000000000000000000000 -50.00000000000000000000000000000000 -1.57737516651322340344165695569245
Created 1 atoms
  Time spent = 1.90735e-06 secs
create_atoms 1 single -44.00000000000000000000000000000000 -48.00000000000000000000000000000000 -1.57737516651322340344165695569245
Created 1 atoms
  Time spent = 1.90735e-06 secs
create_atoms 1 single -44.00000000000000000000000000000000 -46.00000000000000000000000000000000 -1.57737516651322340344165695569245
Created 1 atoms
  Time spent = 5.96046e-06 secs
create_atoms 1 single -44.00000000000000000000000000000000 -44.00000000000000000000000000000000 -1.57737516651322340344165695569245
Created 1 atoms
  Time spent = 4.05312e-06 secs
create_atoms 1 single -44.00000000000000000000000000000000 -42.00000000000000000000000000000000 -1.57737516651322340344165695569245
Created 1 atoms
  Time spent = 3.09944e-06 secs
create_atoms 1 single -44.00000000000000000000000000000000 -40.00000000000000000000000000000000 -1.57737516651322340344165695569245
Created 1 atoms
  Time spent = 4.05312e-06 secs
create_atoms 1 single -44.00000000000000000000000000000000 -38.00000000000000000000000000000000 -1.57737516651322340344165695569245
Created 1 atoms
  Time spent = 3.8147e-06 secs
create_atoms 1 single -44.00000000000000000000000000000000 -36.00000000000000000000000000000000 -1.57737516651322340344165695569245
Created 1 atoms
  Time spent = 4.05312e-06 secs
create_atoms 1 single -44.00000000000000000000000000000000 -34.00000000000000000000000000000000 -1.57737516651322340344165695569245
Created 1 atoms
  Time spent = 4.05312e-06 secs
create_atoms 1 single -44.00000000000000000000000000000000 -32.00000000000000000000000000000000 -1.57737516651322340344165695569245
Created 1 atoms
  Time spent = 3.09944e-06 secs
create_atoms 1 single -44.00000000000000000000000000000000 -30.00000000000000000000000000000000 -1.57737516651322340344165695569245
Created 1 atoms
  Time spent = 2.86102e-06 secs
create_atoms 1 single -44.00000000000000000000000000000000 -28.00000000000000000000000000000000 -1.57737516651322340344165695569245
Created 1 atoms
  Time spent = 4.05312e-06 secs
create_atoms 1 single -44.00000000000000000000000000000000 -26.00000000000000000000000000000000 -1.57737516651322340344165695569245
Created 1 atoms
  Time spent = 4.05312e-06 secs
create_atoms 1 single -44.00000000000000000000000000000000 -24.00000000000000000000000000000000 -1.57737516651322340344165695569245
Created 1 atoms
  Time spent = 1.21593e-05 secs
create_atoms 1 single -44.00000000000000000000000000000000 -22.00000000000000000000000000000000 -1.57737516651322340344165695569245
Created 1 atoms
  Time spent = 1.90735e-06 secs
create_atoms 1 single -44.00000000000000000000000000000000 -20.00000000000000000000000000000000 -1.57737516651322340344165695569245
Created 1 atoms
  Time spent = 2.14577e-06 secs
create_atoms 1 single -44.00000000000000000000000000000000 -18.00000000000000000000000000000000 -1.57737516651322340344165695569245
Created 1 atoms
  Time spent = 2.14577e-06 secs
create_atoms 1 single -44.00000000000000000000000000000000 -16.00000000000000000000000000000000 -1.57737516651322340344165695569245
Created 1 atoms
  Time spent = 3.09944e-06 secs
create_atoms 1 single -44.00000000000000000000000000000000 -14.00000000000000000000000000000000 -1.57737516651322340344165695569245
Created 1 atoms
  Time spent = 2.14577e-06 secs
create_atoms 1 single -44.00000000000000000000000000000000 -12.00000000000000000000000000000000 -1.57737516651322340344165695569245
Created 1 atoms
  Time spent = 2.14577e-06 secs
create_atoms 1 single -44.00000000000000000000000000000000 -10.00000000000000000000000000000000 -1.57737516651322340344165695569245
Created 1 atoms
  Time spent = 1.21593e-05 secs
create_atoms 1 single -44.00000000000000000000000000000000 -8.00000000000000000000000000000000 -1.57737516651322340344165695569245
Created 1 atoms
  Time spent = 2.86102e-06 secs
create_atoms 1 single -44.00000000000000000000000000000000 -6.00000000000000000000000000000000 -1.57737516651322340344165695569245
Created 1 atoms
  Time spent = 1.90735e-06 secs
create_atoms 1 single -44.00000000000000000000000000000000 -4.00000000000000000000000000000000 -1.57737516651322340344165695569245
Created 1 atoms
  Time spent = 1.90735e-06 secs
create_atoms 1 single -44.00000000000000000000000000000000 -2.00000000000000000000000000000000 -1.57737516651322340344165695569245
Created 1 atoms
  Time spent = 1.90735e-06 secs
create_atoms 1 single -44.00000000000000000000000000000000 0.00000000000000000000000000000000 -1.57737516651322340344165695569245
Created 1 atoms
  Time spent = 1.90735e-06 secs
create_atoms 1 single -44.00000000000000000000000000000000 2.00000000000000000000000000000000 -1.57737516651322340344165695569245
Created 1 atoms
  Time spent = 2.14577e-06 secs
create_atoms 1 single -44.00000000000000000000000000000000 4.00000000000000000000000000000000 -1.57737516651322340344165695569245
Created 1 atoms
  Time spent = 2.14577e-06 secs
create_atoms 1 single -44.00000000000000000000000000000000 6.00000000000000000000000000000000 -1.57737516651322340344165695569245
Created 1 atoms
  Time spent = 2.14577e-06 secs
create_atoms 1 single -44.00000000000000000000000000000000 8.00000000000000000000000000000000 -1.57737516651322340344165695569245
Created 1 atoms
  Time spent = 1.90735e-06 secs
create_atoms 1 single -44.00000000000000000000000000000000 10.00000000000000000000000000000000 -1.57737516651322340344165695569245
Created 1 atoms
  Time spent = 1.90735e-06 secs
create_atoms 1 single -44.00000000000000000000000000000000 12.00000000000000000000000000000000 -1.57737516651322340344165695569245
Created 1 atoms
  Time spent = 1.90735e-06 secs
create_atoms 1 single -44.00000000000000000000000000000000 14.00000000000000000000000000000000 -1.57737516651322340344165695569245
Created 1 atoms
  Time spent = 2.86102e-06 secs
create_atoms 1 single -44.00000000000000000000000000000000 16.00000000000000000000000000000000 -1.57737516651322340344165695569245
Created 1 atoms
  Time spent = 3.09944e-06 secs
create_atoms 1 single -44.00000000000000000000000000000000 18.00000000000000000000000000000000 -1.57737516651322340344165695569245
Created 1 atoms
  Time spent = 3.09944e-06 secs
create_atoms 1 single -44.00000000000000000000000000000000 20.00000000000000000000000000000000 -1.57737516651322340344165695569245
Created 1 atoms
  Time spent = 3.09944e-06 secs
create_atoms 1 single -44.00000000000000000000000000000000 22.00000000000000000000000000000000 -1.57737516651322340344165695569245
Created 1 atoms
  Time spent = 3.09944e-06 secs
create_atoms 1 single -44.00000000000000000000000000000000 24.00000000000000000000000000000000 -1.57737516651322340344165695569245
Created 1 atoms
  Time spent = 2.86102e-06 secs
create_atoms 1 single -44.00000000000000000000000000000000 26.00000000000000000000000000000000 -1.57737516651322340344165695569245
Created 1 atoms
  Time spent = 3.09944e-06 secs
create_atoms 1 single -44.00000000000000000000000000000000 28.00000000000000000000000000000000 -1.57737516651322340344165695569245
Created 1 atoms
  Time spent = 2.14577e-06 secs
create_atoms 1 single -44.00000000000000000000000000000000 30.00000000000000000000000000000000 -1.57737516651322340344165695569245
Created 1 atoms
  Time spent = 3.09944e-06 secs
create_atoms 1 single -44.00000000000000000000000000000000 32.00000000000000000000000000000000 -1.57737516651322340344165695569245
Created 1 atoms
  Time spent = 3.09944e-06 secs
create_atoms 1 single -44.00000000000000000000000000000000 34.00000000000000000000000000000000 -1.57737516651322340344165695569245
Created 1 atoms
  Time spent = 2.86102e-06 secs
create_atoms 1 single -44.00000000000000000000000000000000 36.00000000000000000000000000000000 -1.57737516651322340344165695569245
Created 1 atoms
  Time spent = 1.90735e-06 secs
create_atoms 1 single -44.00000000000000000000000000000000 38.00000000000000000000000000000000 -1.57737516651322340344165695569245
Created 1 atoms
  Time spent = 1.90735e-06 secs
create_atoms 1 single -44.00000000000000000000000000000000 40.00000000000000000000000000000000 -1.57737516651322340344165695569245
Created 1 atoms
  Time spent = 2.14577e-06 secs
create_atoms 1 single -44.00000000000000000000000000000000 42.00000000000000000000000000000000 -1.57737516651322340344165695569245
Created 1 atoms
  Time spent = 2.14577e-06 secs
create_atoms 1 single -44.00000000000000000000000000000000 44.00000000000000000000000000000000 -1.57737516651322340344165695569245
Created 1 atoms
  Time spent = 1.90735e-06 secs
create_atoms 1 single -44.00000000000000000000000000000000 46.00000000000000000000000000000000 -1.57737516651322340344165695569245
Created 1 atoms
  Time spent = 1.90735e-06 secs
create_atoms 1 single -44.00000000000000000000000000000000 48.00000000000000000000000000000000 -1.57737516651322340344165695569245
Created 1 atoms
  Time spent = 1.90735e-06 secs
create_atoms 1 single -42.00000000000000000000000000000000 -50.00000000000000000000000000000000 -1.57737516651322340344165695569245
Created 1 atoms
  Time spent = 3.09944e-06 secs
create_atoms 1 single -42.00000000000000000000000000000000 -48.00000000000000000000000000000000 -1.57737516651322340344165695569245
Created 1 atoms
  Time spent = 3.09944e-06 secs
create_atoms 1 single -42.00000000000000000000000000000000 -46.00000000000000000000000000000000 -1.57737516651322340344165695569245
Created 1 atoms
  Time spent = 3.09944e-06 secs
create_atoms 1 single -42.00000000000000000000000000000000 -44.00000000000000000000000000000000 -1.57737516651322340344165695569245
Created 1 atoms
  Time spent = 3.09944e-06 secs
create_atoms 1 single -42.00000000000000000000000000000000 -42.00000000000000000000000000000000 -1.57737516651322340344165695569245
Created 1 atoms
  Time spent = 2.86102e-06 secs
create_atoms 1 single -42.00000000000000000000000000000000 -40.00000000000000000000000000000000 -1.57737516651322340344165695569245
Created 1 atoms
  Time spent = 2.86102e-06 secs
create_atoms 1 single -42.00000000000000000000000000000000 -38.00000000000000000000000000000000 -1.57737516651322340344165695569245
Created 1 atoms
  Time spent = 2.86102e-06 secs
create_atoms 1 single -42.00000000000000000000000000000000 -36.00000000000000000000000000000000 -1.57737516651322340344165695569245
Created 1 atoms
  Time spent = 2.14577e-06 secs
create_atoms 1 single -42.00000000000000000000000000000000 -34.00000000000000000000000000000000 -1.57737516651322340344165695569245
Created 1 atoms
  Time spent = 2.14577e-06 secs
create_atoms 1 single -42.00000000000000000000000000000000 -32.00000000000000000000000000000000 -1.57737516651322340344165695569245
Created 1 atoms
  Time spent = 3.09944e-06 secs
create_atoms 1 single -42.00000000000000000000000000000000 -30.00000000000000000000000000000000 -1.57737516651322340344165695569245
Created 1 atoms
  Time spent = 1.90735e-06 secs
create_atoms 1 single -42.00000000000000000000000000000000 -28.00000000000000000000000000000000 -1.57737516651322340344165695569245
Created 1 atoms
  Time spent = 1.90735e-06 secs
create_atoms 1 single -42.00000000000000000000000000000000 -26.00000000000000000000000000000000 -1.57737516651322340344165695569245
Created 1 atoms
  Time spent = 3.09944e-06 secs
create_atoms 1 single -42.00000000000000000000000000000000 -24.00000000000000000000000000000000 -1.57737516651322340344165695569245
Created 1 atoms
  Time spent = 3.09944e-06 secs
create_atoms 1 single -42.00000000000000000000000000000000 -22.00000000000000000000000000000000 -1.57737516651322340344165695569245
Created 1 atoms
  Time spent = 2.86102e-06 secs
create_atoms 1 single -42.00000000000000000000000000000000 -20.00000000000000000000000000000000 -1.57737516651322340344165695569245
Created 1 atoms
  Time spent = 1.90735e-06 secs
create_atoms 1 single -42.00000000000000000000000000000000 -18.00000000000000000000000000000000 -1.57737516651322340344165695569245
Created 1 atoms
  Time spent = 3.09944e-06 secs
create_atoms 1 single -42.00000000000000000000000000000000 -16.00000000000000000000000000000000 -1.57737516651322340344165695569245
Created 1 atoms
  Time spent = 3.09944e-06 secs
create_atoms 1 single -42.00000000000000000000000000000000 -14.00000000000000000000000000000000 -1.57737516651322340344165695569245
Created 1 atoms
  Time spent = 1.90735e-06 secs
create_atoms 1 single -42.00000000000000000000000000000000 -12.00000000000000000000000000000000 -1.57737516651322340344165695569245
Created 1 atoms
  Time spent = 3.09944e-06 secs
create_atoms 1 single -42.00000000000000000000000000000000 -10.00000000000000000000000000000000 -1.57737516651322340344165695569245
Created 1 atoms
  Time spent = 3.09944e-06 secs
create_atoms 1 single -42.00000000000000000000000000000000 -8.00000000000000000000000000000000 -1.57737516651322340344165695569245
Created 1 atoms
  Time spent = 1.19209e-05 secs
create_atoms 1 single -42.00000000000000000000000000000000 -6.00000000000000000000000000000000 -1.57737516651322340344165695569245
Created 1 atoms
  Time spent = 5.00679e-06 secs
create_atoms 1 single -42.00000000000000000000000000000000 -4.00000000000000000000000000000000 -1.57737516651322340344165695569245
Created 1 atoms
  Time spent = 2.86102e-06 secs
create_atoms 1 single -42.00000000000000000000000000000000 -2.00000000000000000000000000000000 -1.57737516651322340344165695569245
Created 1 atoms
  Time spent = 3.09944e-06 secs
create_atoms 1 single -42.00000000000000000000000000000000 0.00000000000000000000000000000000 -1.57737516651322340344165695569245
Created 1 atoms
  Time spent = 3.09944e-06 secs
create_atoms 1 single -42.00000000000000000000000000000000 2.00000000000000000000000000000000 -1.57737516651322340344165695569245
Created 1 atoms
  Time spent = 3.09944e-06 secs
create_atoms 1 single -42.00000000000000000000000000000000 4.00000000000000000000000000000000 -1.57737516651322340344165695569245
Created 1 atoms
  Time spent = 3.09944e-06 secs
create_atoms 1 single -42.00000000000000000000000000000000 6.00000000000000000000000000000000 -1.57737516651322340344165695569245
Created 1 atoms
  Time spent = 1.90735e-06 secs
create_atoms 1 single -42.00000000000000000000000000000000 8.00000000000000000000000000000000 -1.57737516651322340344165695569245
Created 1 atoms
  Time spent = 1.90735e-06 secs
create_atoms 1 single -42.00000000000000000000000000000000 10.00000000000000000000000000000000 -1.57737516651322340344165695569245
Created 1 atoms
  Time spent = 3.09944e-06 secs
create_atoms 1 single -42.00000000000000000000000000000000 12.00000000000000000000000000000000 -1.57737516651322340344165695569245
Created 1 atoms
  Time spent = 1.90735e-06 secs
create_atoms 1 single -42.00000000000000000000000000000000 14.00000000000000000000000000000000 -1.57737516651322340344165695569245
Created 1 atoms
  Time spent = 2.86102e-06 secs
create_atoms 1 single -42.00000000000000000000000000000000 16.00000000000000000000000000000000 -1.57737516651322340344165695569245
Created 1 atoms
  Time spent = 2.86102e-06 secs
create_atoms 1 single -42.00000000000000000000000000000000 18.00000000000000000000000000000000 -1.57737516651322340344165695569245
Created 1 atoms
  Time spent = 2.14577e-06 secs
create_atoms 1 single -42.00000000000000000000000000000000 20.00000000000000000000000000000000 -1.57737516651322340344165695569245
Created 1 atoms
  Time spent = 3.09944e-06 secs
create_atoms 1 single -42.00000000000000000000000000000000 22.00000000000000000000000000000000 -1.57737516651322340344165695569245
Created 1 atoms
  Time spent = 2.86102e-06 secs
create_atoms 1 single -42.00000000000000000000000000000000 24.00000000000000000000000000000000 -1.57737516651322340344165695569245
Created 1 atoms
  Time spent = 1.90735e-06 secs
create_atoms 1 single -42.00000000000000000000000000000000 26.00000000000000000000000000000000 -1.57737516651322340344165695569245
Created 1 atoms
  Time spent = 4.05312e-06 secs
create_atoms 1 single -42.00000000000000000000000000000000 28.00000000000000000000000000000000 -1.57737516651322340344165695569245
Created 1 atoms
  Time spent = 4.05312e-06 secs
create_atoms 1 single -42.00000000000000000000000000000000 30.00000000000000000000000000000000 -1.57737516651322340344165695569245
Created 1 atoms
  Time spent = 5.00679e-06 secs
create_atoms 1 single -42.00000000000000000000000000000000 32.00000000000000000000000000000000 -1.57737516651322340344165695569245
Created 1 atoms
  Time spent = 5.00679e-06 secs
create_atoms 1 single -42.00000000000000000000000000000000 34.00000000000000000000000000000000 -1.57737516651322340344165695569245
Created 1 atoms
  Time spent = 5.00679e-06 secs
create_atoms 1 single -42.00000000000000000000000000000000 36.00000000000000000000000000000000 -1.57737516651322340344165695569245
Created 1 atoms
  Time spent = 4.05312e-06 secs
create_atoms 1 single -42.00000000000000000000000000000000 38.00000000000000000000000000000000 -1.57737516651322340344165695569245
Created 1 atoms
  Time spent = 4.05312e-06 secs
create_atoms 1 single -42.00000000000000000000000000000000 40.00000000000000000000000000000000 -1.57737516651322340344165695569245
Created 1 atoms
  Time spent = 4.05312e-06 secs
create_atoms 1 single -42.00000000000000000000000000000000 42.00000000000000000000000000000000 -1.57737516651322340344165695569245
Created 1 atoms
  Time spent = 4.05312e-06 secs
create_atoms 1 single -42.00000000000000000000000000000000 44.00000000000000000000000000000000 -1.57737516651322340344165695569245
Created 1 atoms
  Time spent = 4.05312e-06 secs
create_atoms 1 single -42.00000000000000000000000000000000 46.00000000000000000000000000000000 -1.57737516651322340344165695569245
Created 1 atoms
  Time spent = 4.05312e-06 secs
create_atoms 1 single -42.00000000000000000000000000000000 48.00000000000000000000000000000000 -1.57737516651322340344165695569245
Created 1 atoms
  Time spent = 4.05312e-06 secs
create_atoms 1 single -40.00000000000000000000000000000000 -50.00000000000000000000000000000000 -1.57737516651322340344165695569245
Created 1 atoms
  Time spent = 3.8147e-06 secs
create_atoms 1 single -40.00000000000000000000000000000000 -48.00000000000000000000000000000000 -1.57737516651322340344165695569245
Created 1 atoms
  Time spent = 3.8147e-06 secs
create_atoms 1 single -40.00000000000000000000000000000000 -46.00000000000000000000000000000000 -1.57737516651322340344165695569245
Created 1 atoms
  Time spent = 4.05312e-06 secs
create_atoms 1 single -40.00000000000000000000000000000000 -44.00000000000000000000000000000000 -1.57737516651322340344165695569245
Created 1 atoms
  Time spent = 4.05312e-06 secs
create_atoms 1 single -40.00000000000000000000000000000000 -42.00000000000000000000000000000000 -1.57737516651322340344165695569245
Created 1 atoms
  Time spent = 3.09944e-06 secs
create_atoms 1 single -40.00000000000000000000000000000000 -40.00000000000000000000000000000000 -1.57737516651322340344165695569245
Created 1 atoms
  Time spent = 5.00679e-06 secs
create_atoms 1 single -40.00000000000000000000000000000000 -38.00000000000000000000000000000000 -1.57737516651322340344165695569245
Created 1 atoms
  Time spent = 2.40803e-05 secs
create_atoms 1 single -40.00000000000000000000000000000000 -36.00000000000000000000000000000000 -1.57737516651322340344165695569245
Created 1 atoms
  Time spent = 4.05312e-06 secs
create_atoms 1 single -40.00000000000000000000000000000000 -34.00000000000000000000000000000000 -1.57737516651322340344165695569245
Created 1 atoms
  Time spent = 3.09944e-06 secs
create_atoms 1 single -40.00000000000000000000000000000000 -32.00000000000000000000000000000000 -1.57737516651322340344165695569245
Created 1 atoms
  Time spent = 3.8147e-06 secs
create_atoms 1 single -40.00000000000000000000000000000000 -30.00000000000000000000000000000000 -1.57737516651322340344165695569245
Created 1 atoms
  Time spent = 4.05312e-06 secs
create_atoms 1 single -40.00000000000000000000000000000000 -28.00000000000000000000000000000000 -1.57737516651322340344165695569245
Created 1 atoms
  Time spent = 2.86102e-06 secs
create_atoms 1 single -40.00000000000000000000000000000000 -26.00000000000000000000000000000000 -1.57737516651322340344165695569245
Created 1 atoms
  Time spent = 1.90735e-06 secs
create_atoms 1 single -40.00000000000000000000000000000000 -24.00000000000000000000000000000000 -1.57737516651322340344165695569245
Created 1 atoms
  Time spent = 3.09944e-06 secs
create_atoms 1 single -40.00000000000000000000000000000000 -22.00000000000000000000000000000000 -1.57737516651322340344165695569245
Created 1 atoms
  Time spent = 3.09944e-06 secs
create_atoms 1 single -40.00000000000000000000000000000000 -20.00000000000000000000000000000000 -1.57737516651322340344165695569245
Created 1 atoms
  Time spent = 3.09944e-06 secs
create_atoms 1 single -40.00000000000000000000000000000000 -18.00000000000000000000000000000000 -1.57737516651322340344165695569245
Created 1 atoms
  Time spent = 2.14577e-06 secs
create_atoms 1 single -40.00000000000000000000000000000000 -16.00000000000000000000000000000000 -1.57737516651322340344165695569245
Created 1 atoms
  Time spent = 1.90735e-06 secs
create_atoms 1 single -40.00000000000000000000000000000000 -14.00000000000000000000000000000000 -1.57737516651322340344165695569245
Created 1 atoms
  Time spent = 3.09944e-06 secs
create_atoms 1 single -40.00000000000000000000000000000000 -12.00000000000000000000000000000000 -1.57737516651322340344165695569245
Created 1 atoms
  Time spent = 1.90735e-06 secs
create_atoms 1 single -40.00000000000000000000000000000000 -10.00000000000000000000000000000000 -1.57737516651322340344165695569245
Created 1 atoms
  Time spent = 1.90735e-06 secs
create_atoms 1 single -40.00000000000000000000000000000000 -8.00000000000000000000000000000000 -1.57737516651322340344165695569245
Created 1 atoms
  Time spent = 2.86102e-06 secs
create_atoms 1 single -40.00000000000000000000000000000000 -6.00000000000000000000000000000000 -1.57737516651322340344165695569245
Created 1 atoms
  Time spent = 1.90735e-06 secs
create_atoms 1 single -40.00000000000000000000000000000000 -4.00000000000000000000000000000000 -1.57737516651322340344165695569245
Created 1 atoms
  Time spent = 3.09944e-06 secs
create_atoms 1 single -40.00000000000000000000000000000000 -2.00000000000000000000000000000000 -1.57737516651322340344165695569245
Created 1 atoms
  Time spent = 4.05312e-06 secs
create_atoms 1 single -40.00000000000000000000000000000000 0.00000000000000000000000000000000 -1.57737516651322340344165695569245
Created 1 atoms
  Time spent = 3.8147e-06 secs
create_atoms 1 single -40.00000000000000000000000000000000 2.00000000000000000000000000000000 -1.57737516651322340344165695569245
Created 1 atoms
  Time spent = 4.05312e-06 secs
create_atoms 1 single -40.00000000000000000000000000000000 4.00000000000000000000000000000000 -1.57737516651322340344165695569245
Created 1 atoms
  Time spent = 3.8147e-06 secs
create_atoms 1 single -40.00000000000000000000000000000000 6.00000000000000000000000000000000 -1.57737516651322340344165695569245
Created 1 atoms
  Time spent = 3.8147e-06 secs
create_atoms 1 single -40.00000000000000000000000000000000 8.00000000000000000000000000000000 -1.57737516651322340344165695569245
Created 1 atoms
  Time spent = 4.05312e-06 secs
create_atoms 1 single -40.00000000000000000000000000000000 10.00000000000000000000000000000000 -1.57737516651322340344165695569245
Created 1 atoms
  Time spent = 2.90871e-05 secs
create_atoms 1 single -40.00000000000000000000000000000000 12.00000000000000000000000000000000 -1.57737516651322340344165695569245
Created 1 atoms
  Time spent = 5.00679e-06 secs
create_atoms 1 single -40.00000000000000000000000000000000 14.00000000000000000000000000000000 -1.57737516651322340344165695569245
Created 1 atoms
  Time spent = 3.8147e-06 secs
create_atoms 1 single -40.00000000000000000000000000000000 16.00000000000000000000000000000000 -1.57737516651322340344165695569245
Created 1 atoms
  Time spent = 4.05312e-06 secs
create_atoms 1 single -40.00000000000000000000000000000000 18.00000000000000000000000000000000 -1.57737516651322340344165695569245
Created 1 atoms
  Time spent = 4.05312e-06 secs
create_atoms 1 single -40.00000000000000000000000000000000 20.00000000000000000000000000000000 -1.57737516651322340344165695569245
Created 1 atoms
  Time spent = 3.8147e-06 secs
create_atoms 1 single -40.00000000000000000000000000000000 22.00000000000000000000000000000000 -1.57737516651322340344165695569245
Created 1 atoms
  Time spent = 5.00679e-06 secs
create_atoms 1 single -40.00000000000000000000000000000000 24.00000000000000000000000000000000 -1.57737516651322340344165695569245
Created 1 atoms
  Time spent = 5.00679e-06 secs
create_atoms 1 single -40.00000000000000000000000000000000 26.00000000000000000000000000000000 -1.57737516651322340344165695569245
Created 1 atoms
  Time spent = 3.09944e-06 secs
create_atoms 1 single -40.00000000000000000000000000000000 28.00000000000000000000000000000000 -1.57737516651322340344165695569245
Created 1 atoms
  Time spent = 4.05312e-06 secs
create_atoms 1 single -40.00000000000000000000000000000000 30.00000000000000000000000000000000 -1.57737516651322340344165695569245
Created 1 atoms
  Time spent = 4.05312e-06 secs
create_atoms 1 single -40.00000000000000000000000000000000 32.00000000000000000000000000000000 -1.57737516651322340344165695569245
Created 1 atoms
  Time spent = 4.05312e-06 secs
create_atoms 1 single -40.00000000000000000000000000000000 34.00000000000000000000000000000000 -1.57737516651322340344165695569245
Created 1 atoms
  Time spent = 4.05312e-06 secs
create_atoms 1 single -40.00000000000000000000000000000000 36.00000000000000000000000000000000 -1.57737516651322340344165695569245
Created 1 atoms
  Time spent = 4.05312e-06 secs
create_atoms 1 single -40.00000000000000000000000000000000 38.00000000000000000000000000000000 -1.57737516651322340344165695569245
Created 1 atoms
  Time spent = 3.09944e-06 secs
create_atoms 1 single -40.00000000000000000000000000000000 40.00000000000000000000000000000000 -1.57737516651322340344165695569245
Created 1 atoms
  Time spent = 5.00679e-06 secs
create_atoms 1 single -40.00000000000000000000000000000000 42.00000000000000000000000000000000 -1.57737516651322340344165695569245
Created 1 atoms
  Time spent = 4.05312e-06 secs
create_atoms 1 single -40.00000000000000000000000000000000 44.00000000000000000000000000000000 -1.57737516651322340344165695569245
Created 1 atoms
  Time spent = 4.05312e-06 secs
create_atoms 1 single -40.00000000000000000000000000000000 46.00000000000000000000000000000000 -1.57737516651322340344165695569245
Created 1 atoms
  Time spent = 4.05312e-06 secs
create_atoms 1 single -40.00000000000000000000000000000000 48.00000000000000000000000000000000 -1.57737516651322340344165695569245
Created 1 atoms
  Time spent = 4.05312e-06 secs
create_atoms 1 single -38.00000000000000000000000000000000 -50.00000000000000000000000000000000 -1.57737516651322340344165695569245
Created 1 atoms
  Time spent = 2.14577e-06 secs
create_atoms 1 single -38.00000000000000000000000000000000 -48.00000000000000000000000000000000 -1.57737516651322340344165695569245
Created 1 atoms
  Time spent = 2.14577e-06 secs
create_atoms 1 single -38.00000000000000000000000000000000 -46.00000000000000000000000000000000 -1.57737516651322340344165695569245
Created 1 atoms
  Time spent = 2.14577e-06 secs
create_atoms 1 single -38.00000000000000000000000000000000 -44.00000000000000000000000000000000 -1.57737516651322340344165695569245
Created 1 atoms
  Time spent = 1.90735e-06 secs
create_atoms 1 single -38.00000000000000000000000000000000 -42.00000000000000000000000000000000 -1.57737516651322340344165695569245
Created 1 atoms
  Time spent = 2.86102e-06 secs
create_atoms 1 single -38.00000000000000000000000000000000 -40.00000000000000000000000000000000 -1.57737516651322340344165695569245
Created 1 atoms
  Time spent = 3.8147e-06 secs
create_atoms 1 single -38.00000000000000000000000000000000 -38.00000000000000000000000000000000 -1.57737516651322340344165695569245
Created 1 atoms
  Time spent = 5.00679e-06 secs
create_atoms 1 single -38.00000000000000000000000000000000 -36.00000000000000000000000000000000 -1.57737516651322340344165695569245
Created 1 atoms
  Time spent = 5.00679e-06 secs
create_atoms 1 single -38.00000000000000000000000000000000 -34.00000000000000000000000000000000 -1.57737516651322340344165695569245
Created 1 atoms
  Time spent = 3.8147e-06 secs
create_atoms 1 single -38.00000000000000000000000000000000 -32.00000000000000000000000000000000 -1.57737516651322340344165695569245
Created 1 atoms
  Time spent = 1.71661e-05 secs
create_atoms 1 single -38.00000000000000000000000000000000 -30.00000000000000000000000000000000 -1.57737516651322340344165695569245
Created 1 atoms
  Time spent = 5.96046e-06 secs
create_atoms 1 single -38.00000000000000000000000000000000 -28.00000000000000000000000000000000 -1.57737516651322340344165695569245
Created 1 atoms
  Time spent = 1.28746e-05 secs
create_atoms 1 single -38.00000000000000000000000000000000 -26.00000000000000000000000000000000 -1.57737516651322340344165695569245
Created 1 atoms
  Time spent = 5.96046e-06 secs
create_atoms 1 single -38.00000000000000000000000000000000 -24.00000000000000000000000000000000 -1.57737516651322340344165695569245
Created 1 atoms
  Time spent = 5.00679e-06 secs
create_atoms 1 single -38.00000000000000000000000000000000 -22.00000000000000000000000000000000 -1.57737516651322340344165695569245
Created 1 atoms
  Time spent = 5.00679e-06 secs
create_atoms 1 single -38.00000000000000000000000000000000 -20.00000000000000000000000000000000 -1.57737516651322340344165695569245
Created 1 atoms
  Time spent = 2.09808e-05 secs
create_atoms 1 single -38.00000000000000000000000000000000 -18.00000000000000000000000000000000 -1.57737516651322340344165695569245
Created 1 atoms
  Time spent = 2.5034e-05 secs
create_atoms 1 single -38.00000000000000000000000000000000 -16.00000000000000000000000000000000 -1.57737516651322340344165695569245
Created 1 atoms
  Time spent = 3.8147e-05 secs
create_atoms 1 single -38.00000000000000000000000000000000 -14.00000000000000000000000000000000 -1.57737516651322340344165695569245
Created 1 atoms
  Time spent = 2.5034e-05 secs
create_atoms 1 single -38.00000000000000000000000000000000 -12.00000000000000000000000000000000 -1.57737516651322340344165695569245
Created 1 atoms
  Time spent = 5.00679e-06 secs
create_atoms 1 single -38.00000000000000000000000000000000 -10.00000000000000000000000000000000 -1.57737516651322340344165695569245
Created 1 atoms
  Time spent = 5.00679e-06 secs
create_atoms 1 single -38.00000000000000000000000000000000 -8.00000000000000000000000000000000 -1.57737516651322340344165695569245
Created 1 atoms
  Time spent = 1.09673e-05 secs
create_atoms 1 single -38.00000000000000000000000000000000 -6.00000000000000000000000000000000 -1.57737516651322340344165695569245
Created 1 atoms
  Time spent = 7.86781e-06 secs
create_atoms 1 single -38.00000000000000000000000000000000 -4.00000000000000000000000000000000 -1.57737516651322340344165695569245
Created 1 atoms
  Time spent = 1.09673e-05 secs
create_atoms 1 single -38.00000000000000000000000000000000 -2.00000000000000000000000000000000 -1.57737516651322340344165695569245
Created 1 atoms
  Time spent = 5.00679e-06 secs
create_atoms 1 single -38.00000000000000000000000000000000 0.00000000000000000000000000000000 -1.57737516651322340344165695569245
Created 1 atoms
  Time spent = 7.86781e-06 secs
create_atoms 1 single -38.00000000000000000000000000000000 2.00000000000000000000000000000000 -1.57737516651322340344165695569245
Created 1 atoms
  Time spent = 3.79086e-05 secs
create_atoms 1 single -38.00000000000000000000000000000000 4.00000000000000000000000000000000 -1.57737516651322340344165695569245
Created 1 atoms
  Time spent = 1.88351e-05 secs
create_atoms 1 single -38.00000000000000000000000000000000 6.00000000000000000000000000000000 -1.57737516651322340344165695569245
Created 1 atoms
  Time spent = 7.86781e-06 secs
create_atoms 1 single -38.00000000000000000000000000000000 8.00000000000000000000000000000000 -1.57737516651322340344165695569245
Created 1 atoms
  Time spent = 8.10623e-06 secs
create_atoms 1 single -38.00000000000000000000000000000000 10.00000000000000000000000000000000 -1.57737516651322340344165695569245
Created 1 atoms
  Time spent = 7.86781e-06 secs
create_atoms 1 single -38.00000000000000000000000000000000 12.00000000000000000000000000000000 -1.57737516651322340344165695569245
Created 1 atoms
  Time spent = 5.96046e-06 secs
create_atoms 1 single -38.00000000000000000000000000000000 14.00000000000000000000000000000000 -1.57737516651322340344165695569245
Created 1 atoms
  Time spent = 6.91414e-06 secs
create_atoms 1 single -38.00000000000000000000000000000000 16.00000000000000000000000000000000 -1.57737516651322340344165695569245
Created 1 atoms
  Time spent = 8.10623e-06 secs
create_atoms 1 single -38.00000000000000000000000000000000 18.00000000000000000000000000000000 -1.57737516651322340344165695569245
Created 1 atoms
  Time spent = 9.05991e-06 secs
create_atoms 1 single -38.00000000000000000000000000000000 20.00000000000000000000000000000000 -1.57737516651322340344165695569245
Created 1 atoms
  Time spent = 1.00136e-05 secs
create_atoms 1 single -38.00000000000000000000000000000000 22.00000000000000000000000000000000 -1.57737516651322340344165695569245
Created 1 atoms
  Time spent = 8.10623e-06 secs
create_atoms 1 single -38.00000000000000000000000000000000 24.00000000000000000000000000000000 -1.57737516651322340344165695569245
Created 1 atoms
  Time spent = 5.00679e-06 secs
create_atoms 1 single -38.00000000000000000000000000000000 26.00000000000000000000000000000000 -1.57737516651322340344165695569245
Created 1 atoms
  Time spent = 7.15256e-06 secs
create_atoms 1 single -38.00000000000000000000000000000000 28.00000000000000000000000000000000 -1.57737516651322340344165695569245
Created 1 atoms
  Time spent = 5.00679e-06 secs
create_atoms 1 single -38.00000000000000000000000000000000 30.00000000000000000000000000000000 -1.57737516651322340344165695569245
Created 1 atoms
  Time spent = 5.96046e-06 secs
create_atoms 1 single -38.00000000000000000000000000000000 32.00000000000000000000000000000000 -1.57737516651322340344165695569245
Created 1 atoms
  Time spent = 2.71797e-05 secs
create_atoms 1 single -38.00000000000000000000000000000000 34.00000000000000000000000000000000 -1.57737516651322340344165695569245
Created 1 atoms
  Time spent = 6.19888e-06 secs
create_atoms 1 single -38.00000000000000000000000000000000 36.00000000000000000000000000000000 -1.57737516651322340344165695569245
Created 1 atoms
  Time spent = 5.96046e-06 secs
create_atoms 1 single -38.00000000000000000000000000000000 38.00000000000000000000000000000000 -1.57737516651322340344165695569245
Created 1 atoms
  Time spent = 5.96046e-06 secs
create_atoms 1 single -38.00000000000000000000000000000000 40.00000000000000000000000000000000 -1.57737516651322340344165695569245
Created 1 atoms
  Time spent = 5.00679e-06 secs
create_atoms 1 single -38.00000000000000000000000000000000 42.00000000000000000000000000000000 -1.57737516651322340344165695569245
Created 1 atoms
  Time spent = 7.15256e-06 secs
create_atoms 1 single -38.00000000000000000000000000000000 44.00000000000000000000000000000000 -1.57737516651322340344165695569245
Created 1 atoms
  Time spent = 5.96046e-06 secs
create_atoms 1 single -38.00000000000000000000000000000000 46.00000000000000000000000000000000 -1.57737516651322340344165695569245
Created 1 atoms
  Time spent = 5.96046e-06 secs
create_atoms 1 single -38.00000000000000000000000000000000 48.00000000000000000000000000000000 -1.57737516651322340344165695569245
Created 1 atoms
  Time spent = 5.00679e-06 secs
create_atoms 1 single -36.00000000000000000000000000000000 -50.00000000000000000000000000000000 -1.57737516651322340344165695569245
Created 1 atoms
  Time spent = 5.96046e-06 secs
create_atoms 1 single -36.00000000000000000000000000000000 -48.00000000000000000000000000000000 -1.57737516651322340344165695569245
Created 1 atoms
  Time spent = 5.00679e-06 secs
create_atoms 1 single -36.00000000000000000000000000000000 -46.00000000000000000000000000000000 -1.57737516651322340344165695569245
Created 1 atoms
  Time spent = 5.96046e-06 secs
create_atoms 1 single -36.00000000000000000000000000000000 -44.00000000000000000000000000000000 -1.57737516651322340344165695569245
Created 1 atoms
  Time spent = 5.96046e-06 secs
create_atoms 1 single -36.00000000000000000000000000000000 -42.00000000000000000000000000000000 -1.57737516651322340344165695569245
Created 1 atoms
  Time spent = 3.09944e-06 secs
create_atoms 1 single -36.00000000000000000000000000000000 -40.00000000000000000000000000000000 -1.57737516651322340344165695569245
Created 1 atoms
  Time spent = 2.86102e-06 secs
create_atoms 1 single -36.00000000000000000000000000000000 -38.00000000000000000000000000000000 -1.57737516651322340344165695569245
Created 1 atoms
  Time spent = 1.50204e-05 secs
create_atoms 1 single -36.00000000000000000000000000000000 -36.00000000000000000000000000000000 -1.57737516651322340344165695569245
Created 1 atoms
  Time spent = 2.86102e-06 secs
create_atoms 1 single -36.00000000000000000000000000000000 -34.00000000000000000000000000000000 -1.57737516651322340344165695569245
Created 1 atoms
  Time spent = 2.86102e-06 secs
create_atoms 1 single -36.00000000000000000000000000000000 -32.00000000000000000000000000000000 -1.57737516651322340344165695569245
Created 1 atoms
  Time spent = 2.86102e-06 secs
create_atoms 1 single -36.00000000000000000000000000000000 -30.00000000000000000000000000000000 -1.57737516651322340344165695569245
Created 1 atoms
  Time spent = 3.09944e-06 secs
create_atoms 1 single -36.00000000000000000000000000000000 -28.00000000000000000000000000000000 -1.57737516651322340344165695569245
Created 1 atoms
  Time spent = 2.86102e-06 secs
create_atoms 1 single -36.00000000000000000000000000000000 -26.00000000000000000000000000000000 -1.57737516651322340344165695569245
Created 1 atoms
  Time spent = 2.86102e-06 secs
create_atoms 1 single -36.00000000000000000000000000000000 -24.00000000000000000000000000000000 -1.57737516651322340344165695569245
Created 1 atoms
  Time spent = 2.86102e-06 secs
create_atoms 1 single -36.00000000000000000000000000000000 -22.00000000000000000000000000000000 -1.57737516651322340344165695569245
Created 1 atoms
  Time spent = 3.09944e-06 secs
create_atoms 1 single -36.00000000000000000000000000000000 -20.00000000000000000000000000000000 -1.57737516651322340344165695569245
Created 1 atoms
  Time spent = 3.09944e-06 secs
create_atoms 1 single -36.00000000000000000000000000000000 -18.00000000000000000000000000000000 -1.57737516651322340344165695569245
Created 1 atoms
  Time spent = 3.09944e-06 secs
create_atoms 1 single -36.00000000000000000000000000000000 -16.00000000000000000000000000000000 -1.57737516651322340344165695569245
Created 1 atoms
  Time spent = 2.86102e-06 secs
create_atoms 1 single -36.00000000000000000000000000000000 -14.00000000000000000000000000000000 -1.57737516651322340344165695569245
Created 1 atoms
  Time spent = 3.09944e-06 secs
create_atoms 1 single -36.00000000000000000000000000000000 -12.00000000000000000000000000000000 -1.57737516651322340344165695569245
Created 1 atoms
  Time spent = 3.09944e-06 secs
create_atoms 1 single -36.00000000000000000000000000000000 -10.00000000000000000000000000000000 -1.57737516651322340344165695569245
Created 1 atoms
  Time spent = 3.09944e-06 secs
create_atoms 1 single -36.00000000000000000000000000000000 -8.00000000000000000000000000000000 -1.57737516651322340344165695569245
Created 1 atoms
  Time spent = 2.86102e-06 secs
create_atoms 1 single -36.00000000000000000000000000000000 -6.00000000000000000000000000000000 -1.57737516651322340344165695569245
Created 1 atoms
  Time spent = 3.09944e-06 secs
create_atoms 1 single -36.00000000000000000000000000000000 -4.00000000000000000000000000000000 -1.57737516651322340344165695569245
Created 1 atoms
  Time spent = 2.86102e-06 secs
create_atoms 1 single -36.00000000000000000000000000000000 -2.00000000000000000000000000000000 -1.57737516651322340344165695569245
Created 1 atoms
  Time spent = 2.86102e-06 secs
create_atoms 1 single -36.00000000000000000000000000000000 0.00000000000000000000000000000000 -1.57737516651322340344165695569245
Created 1 atoms
  Time spent = 3.09944e-06 secs
create_atoms 1 single -36.00000000000000000000000000000000 2.00000000000000000000000000000000 -1.57737516651322340344165695569245
Created 1 atoms
  Time spent = 3.09944e-06 secs
create_atoms 1 single -36.00000000000000000000000000000000 4.00000000000000000000000000000000 -1.57737516651322340344165695569245
Created 1 atoms
  Time spent = 2.86102e-06 secs
create_atoms 1 single -36.00000000000000000000000000000000 6.00000000000000000000000000000000 -1.57737516651322340344165695569245
Created 1 atoms
  Time spent = 2.86102e-06 secs
create_atoms 1 single -36.00000000000000000000000000000000 8.00000000000000000000000000000000 -1.57737516651322340344165695569245
Created 1 atoms
  Time spent = 2.86102e-06 secs
create_atoms 1 single -36.00000000000000000000000000000000 10.00000000000000000000000000000000 -1.57737516651322340344165695569245
Created 1 atoms
  Time spent = 3.09944e-06 secs
create_atoms 1 single -36.00000000000000000000000000000000 12.00000000000000000000000000000000 -1.57737516651322340344165695569245
Created 1 atoms
  Time spent = 3.09944e-06 secs
create_atoms 1 single -36.00000000000000000000000000000000 14.00000000000000000000000000000000 -1.57737516651322340344165695569245
Created 1 atoms
  Time spent = 3.09944e-06 secs
create_atoms 1 single -36.00000000000000000000000000000000 16.00000000000000000000000000000000 -1.57737516651322340344165695569245
Created 1 atoms
  Time spent = 2.86102e-06 secs
create_atoms 1 single -36.00000000000000000000000000000000 18.00000000000000000000000000000000 -1.57737516651322340344165695569245
Created 1 atoms
  Time spent = 4.05312e-06 secs
create_atoms 1 single -36.00000000000000000000000000000000 20.00000000000000000000000000000000 -1.57737516651322340344165695569245
Created 1 atoms
  Time spent = 3.09944e-06 secs
create_atoms 1 single -36.00000000000000000000000000000000 22.00000000000000000000000000000000 -1.57737516651322340344165695569245
Created 1 atoms
  Time spent = 2.86102e-06 secs
create_atoms 1 single -36.00000000000000000000000000000000 24.00000000000000000000000000000000 -1.57737516651322340344165695569245
Created 1 atoms
  Time spent = 2.86102e-06 secs
create_atoms 1 single -36.00000000000000000000000000000000 26.00000000000000000000000000000000 -1.57737516651322340344165695569245
Created 1 atoms
  Time spent = 4.05312e-06 secs
create_atoms 1 single -36.00000000000000000000000000000000 28.00000000000000000000000000000000 -1.57737516651322340344165695569245
Created 1 atoms
  Time spent = 6.91414e-06 secs
create_atoms 1 single -36.00000000000000000000000000000000 30.00000000000000000000000000000000 -1.57737516651322340344165695569245
Created 1 atoms
  Time spent = 3.8147e-06 secs
create_atoms 1 single -36.00000000000000000000000000000000 32.00000000000000000000000000000000 -1.57737516651322340344165695569245
Created 1 atoms
  Time spent = 5.00679e-06 secs
create_atoms 1 single -36.00000000000000000000000000000000 34.00000000000000000000000000000000 -1.57737516651322340344165695569245
Created 1 atoms
  Time spent = 5.00679e-06 secs
create_atoms 1 single -36.00000000000000000000000000000000 36.00000000000000000000000000000000 -1.57737516651322340344165695569245
Created 1 atoms
  Time spent = 5.00679e-06 secs
create_atoms 1 single -36.00000000000000000000000000000000 38.00000000000000000000000000000000 -1.57737516651322340344165695569245
Created 1 atoms
  Time spent = 5.00679e-06 secs
create_atoms 1 single -36.00000000000000000000000000000000 40.00000000000000000000000000000000 -1.57737516651322340344165695569245
Created 1 atoms
  Time spent = 6.19888e-06 secs
create_atoms 1 single -36.00000000000000000000000000000000 42.00000000000000000000000000000000 -1.57737516651322340344165695569245
Created 1 atoms
  Time spent = 7.15256e-06 secs
create_atoms 1 single -36.00000000000000000000000000000000 44.00000000000000000000000000000000 -1.57737516651322340344165695569245
Created 1 atoms
  Time spent = 8.10623e-06 secs
create_atoms 1 single -36.00000000000000000000000000000000 46.00000000000000000000000000000000 -1.57737516651322340344165695569245
Created 1 atoms
  Time spent = 3.8147e-06 secs
create_atoms 1 single -36.00000000000000000000000000000000 48.00000000000000000000000000000000 -1.57737516651322340344165695569245
Created 1 atoms
  Time spent = 4.05312e-06 secs
create_atoms 1 single -34.00000000000000000000000000000000 -50.00000000000000000000000000000000 -1.57737516651322340344165695569245
Created 1 atoms
  Time spent = 3.09944e-06 secs
create_atoms 1 single -34.00000000000000000000000000000000 -48.00000000000000000000000000000000 -1.57737516651322340344165695569245
Created 1 atoms
  Time spent = 2.86102e-06 secs
create_atoms 1 single -34.00000000000000000000000000000000 -46.00000000000000000000000000000000 -1.57737516651322340344165695569245
Created 1 atoms
  Time spent = 4.05312e-06 secs
create_atoms 1 single -34.00000000000000000000000000000000 -44.00000000000000000000000000000000 -1.57737516651322340344165695569245
Created 1 atoms
  Time spent = 4.05312e-06 secs
create_atoms 1 single -34.00000000000000000000000000000000 -42.00000000000000000000000000000000 -1.57737516651322340344165695569245
Created 1 atoms
  Time spent = 2.86102e-06 secs
create_atoms 1 single -34.00000000000000000000000000000000 -40.00000000000000000000000000000000 -1.57737516651322340344165695569245
Created 1 atoms
  Time spent = 4.05312e-06 secs
create_atoms 1 single -34.00000000000000000000000000000000 -38.00000000000000000000000000000000 -1.57737516651322340344165695569245
Created 1 atoms
  Time spent = 4.05312e-06 secs
create_atoms 1 single -34.00000000000000000000000000000000 -36.00000000000000000000000000000000 -1.57737516651322340344165695569245
Created 1 atoms
  Time spent = 2.86102e-06 secs
create_atoms 1 single -34.00000000000000000000000000000000 -34.00000000000000000000000000000000 -1.57737516651322340344165695569245
Created 1 atoms
  Time spent = 3.09944e-06 secs
create_atoms 1 single -34.00000000000000000000000000000000 -32.00000000000000000000000000000000 -1.57737516651322340344165695569245
Created 1 atoms
  Time spent = 4.05312e-06 secs
create_atoms 1 single -34.00000000000000000000000000000000 -30.00000000000000000000000000000000 -1.57737516651322340344165695569245
Created 1 atoms
  Time spent = 3.8147e-06 secs
create_atoms 1 single -34.00000000000000000000000000000000 -28.00000000000000000000000000000000 -1.57737516651322340344165695569245
Created 1 atoms
  Time spent = 3.09944e-06 secs
create_atoms 1 single -34.00000000000000000000000000000000 -26.00000000000000000000000000000000 -1.57737516651322340344165695569245
Created 1 atoms
  Time spent = 3.8147e-06 secs
create_atoms 1 single -34.00000000000000000000000000000000 -24.00000000000000000000000000000000 -1.57737516651322340344165695569245
Created 1 atoms
  Time spent = 4.05312e-06 secs
create_atoms 1 single -34.00000000000000000000000000000000 -22.00000000000000000000000000000000 -1.57737516651322340344165695569245
Created 1 atoms
  Time spent = 3.09944e-06 secs
create_atoms 1 single -34.00000000000000000000000000000000 -20.00000000000000000000000000000000 -1.57737516651322340344165695569245
Created 1 atoms
  Time spent = 5.00679e-06 secs
create_atoms 1 single -34.00000000000000000000000000000000 -18.00000000000000000000000000000000 -1.57737516651322340344165695569245
Created 1 atoms
  Time spent = 8.10623e-06 secs
create_atoms 1 single -34.00000000000000000000000000000000 -16.00000000000000000000000000000000 -1.57737516651322340344165695569245
Created 1 atoms
  Time spent = 7.86781e-06 secs
create_atoms 1 single -34.00000000000000000000000000000000 -14.00000000000000000000000000000000 -1.57737516651322340344165695569245
Created 1 atoms
  Time spent = 7.15256e-06 secs
create_atoms 1 single -34.00000000000000000000000000000000 -12.00000000000000000000000000000000 -1.57737516651322340344165695569245
Created 1 atoms
  Time spent = 4.76837e-06 secs
create_atoms 1 single -34.00000000000000000000000000000000 -10.00000000000000000000000000000000 -1.57737516651322340344165695569245
Created 1 atoms
  Time spent = 3.09944e-06 secs
create_atoms 1 single -34.00000000000000000000000000000000 -8.00000000000000000000000000000000 -1.57737516651322340344165695569245
Created 1 atoms
  Time spent = 2.86102e-06 secs
create_atoms 1 single -34.00000000000000000000000000000000 -6.00000000000000000000000000000000 -1.57737516651322340344165695569245
Created 1 atoms
  Time spent = 3.8147e-06 secs
create_atoms 1 single -34.00000000000000000000000000000000 -4.00000000000000000000000000000000 -1.57737516651322340344165695569245
Created 1 atoms
  Time spent = 4.05312e-06 secs
create_atoms 1 single -34.00000000000000000000000000000000 -2.00000000000000000000000000000000 -1.57737516651322340344165695569245
Created 1 atoms
  Time spent = 4.05312e-06 secs
create_atoms 1 single -34.00000000000000000000000000000000 0.00000000000000000000000000000000 -1.57737516651322340344165695569245
Created 1 atoms
  Time spent = 2.86102e-06 secs
create_atoms 1 single -34.00000000000000000000000000000000 2.00000000000000000000000000000000 -1.57737516651322340344165695569245
Created 1 atoms
  Time spent = 3.09944e-06 secs
create_atoms 1 single -34.00000000000000000000000000000000 4.00000000000000000000000000000000 -1.57737516651322340344165695569245
Created 1 atoms
  Time spent = 4.05312e-06 secs
create_atoms 1 single -34.00000000000000000000000000000000 6.00000000000000000000000000000000 -1.57737516651322340344165695569245
Created 1 atoms
  Time spent = 3.09944e-06 secs
create_atoms 1 single -34.00000000000000000000000000000000 8.00000000000000000000000000000000 -1.57737516651322340344165695569245
Created 1 atoms
  Time spent = 2.86102e-06 secs
create_atoms 1 single -34.00000000000000000000000000000000 10.00000000000000000000000000000000 -1.57737516651322340344165695569245
Created 1 atoms
  Time spent = 4.05312e-06 secs
create_atoms 1 single -34.00000000000000000000000000000000 12.00000000000000000000000000000000 -1.57737516651322340344165695569245
Created 1 atoms
  Time spent = 4.05312e-06 secs
create_atoms 1 single -34.00000000000000000000000000000000 14.00000000000000000000000000000000 -1.57737516651322340344165695569245
Created 1 atoms
  Time spent = 2.86102e-06 secs
create_atoms 1 single -34.00000000000000000000000000000000 16.00000000000000000000000000000000 -1.57737516651322340344165695569245
Created 1 atoms
  Time spent = 3.09944e-06 secs
[...]
   17900    29.128597     2500 1.0057264e+09          100 
   18000    29.294781     2500 1.0019209e+09          100 
   18100    29.463612     2500 9.9783956e+08          100 
   18200    29.628325     2500 9.934847e+08          100 
   18300    29.795276     2500 9.8885893e+08          100 
   18400    29.961098     2500 9.8396496e+08          100 
   18500    30.126772     2500 9.7880561e+08          100 
   18600    30.297176     2500 9.7338384e+08          100 
   18700     30.46395     2500 9.6770273e+08          100 
   18800    30.628597     2500 9.6176549e+08          100 
   18900    30.795043     2500 9.5557543e+08          100 
   19000    30.960488     2500 9.4913596e+08          100 
   19100    31.125142     2500 9.4245061e+08          100 
   19200    31.293532     2500 9.3552302e+08          100 
   19300    31.458647     2500 9.2833309e+08          100 
   19400    31.623847     2500 9.2077786e+08          100 
   19500    31.793165     2500 9.1265903e+08          100 
   19600    31.960183     2500 9.0357161e+08          100 
   19700    32.129651     2500 8.9350288e+08          100 
   19800    32.298674     2500 8.8248866e+08          100 
   19900    32.468304     2500 8.7055286e+08          100 
   20000    32.636699     2500 8.577234e+08          100 
   20100    32.809236     2500 8.4403662e+08          100 
   20200    32.975707     2500 8.2953356e+08          100 
   20300    33.142946     2500 8.1425787e+08          100 
   20400    33.313793     2500 7.9825262e+08          100 
   20500    33.487982     2500 7.8155812e+08          100 
   20600    33.656241     2500 7.6419942e+08          100 
   20700    33.824337     2500 7.4616889e+08          100 
   20800     33.99391     2500 7.2751955e+08          100 
   20900     34.16628     2500 7.0832722e+08          100 
   21000    34.341649     2500 6.8867028e+08          100 
   21100    34.510128     2500 6.6861373e+08          100 
   21200    34.683262     2500 6.4817751e+08          100 
   21300    34.856574     2500 6.2713709e+08          100 
   21400    35.031494     2500 6.0495429e+08          100 
   21500    35.204227     2500 5.8164343e+08          100 
   21600    35.374447     2500 5.574346e+08          100 
   21700    35.547347     2500 5.3253263e+08          100 
   21800    35.718771     2500 5.0713043e+08          100 
   21900    35.894228     2500 4.813744e+08          100 
   22000    36.063759     2500 4.5546737e+08          100 
   22100    36.238482     2500 4.2968253e+08          100 
   22200    36.408543     2500 4.0421314e+08          100 
   22300    36.582614     2500 3.7932544e+08          100 
   22400    36.754798     2500 3.5542228e+08          100 
   22500    36.931593     2500 3.3281324e+08          100 
   22600    37.103312     2500 3.1148503e+08          100 
   22700    37.277384     2500 2.9121769e+08          100 
   22800    37.449277     2500 2.7193303e+08          100 
   22900     37.62259     2500 2.5352508e+08          100 
   23000    37.796755     2500 2.3600828e+08          100 
   23100    37.973797     2500 2.1947894e+08          100 
   23200    38.147126     2500 2.0388699e+08          100 
   23300    38.325235     2500 1.8913707e+08          100 
   23400    38.502532     2500 1.7533527e+08          100 
   23500    38.677415     2500 1.6265458e+08          100 
   23600    38.853077     2500 1.5105037e+08          100 
   23700    39.024343     2500 1.4059919e+08          100 
   23800    39.197512     2500 1.3130621e+08          100 
   23900    39.371811     2500 1.2296301e+08          100 
   24000    39.544131     2500 1.1546894e+08          100 
   24100    39.723596     2500 1.0876958e+08          100 
   24200    39.896496     2500 1.0289155e+08          100 
   24300    40.073819     2500     98081934          100 
   24400    40.246465     2500     94182142          100 
   24500    40.419053     2500     91185364          100 
   24600    40.593827     2500     89214326          100 
   24700    40.769426     2500     88148871          100 
   24800    40.942474     2500     87499588          100 
   24900    41.124549     2500     87406103          100 
   25000    41.304707     2500     88310978          100 
   25100    41.484255     2500     90269802          100 
   25200    41.660765     2500     93050242          100 
   25300    41.834536     2500     96554534          100 
   25400    42.007853     2500  1.00588e+08          100 
   25500    42.181532     2500 1.0483605e+08          100 
   25600    42.355353     2500 1.0953257e+08          100 
   25700     42.52958     2500 1.1515822e+08          100 
   25800    42.708825     2500 1.2225288e+08          100 
   25900    42.883111     2500 1.3089249e+08          100 
   26000    43.055141     2500 1.4033124e+08          100 
   26100    43.233457     2500 1.502725e+08          100 
   26200    43.409405     2500 1.6180944e+08          100 
   26300    43.584002     2500 1.7603183e+08          100 
   26400    43.766618     2500 1.936634e+08          100 
   26500    43.940644     2500 2.1534963e+08          100 
   26600    44.111329     2500 2.4095019e+08          100 
   26700    44.290694     2500 2.6953906e+08          100 
   26800    44.463516     2500 2.9950068e+08          100 
   26900    44.635607     2500 3.2915972e+08          100 
   27000    44.812375     2500 3.5768395e+08          100 
   27100    44.987754     2500 3.8571999e+08          100 
   27200    45.158823     2500 4.128014e+08          100 
   27300    45.330261     2500 4.3830331e+08          100 
   27400    45.501709     2500 4.617848e+08          100 
   27500    45.673541     2500 4.8322365e+08          100 
   27600    45.845254     2500 5.0384985e+08          100 
   27700    46.016207     2500 5.2441029e+08          100 
   27800    46.186234     2500 5.4481297e+08          100 
   27900    46.356935     2500 5.6510328e+08          100 
   28000    46.529172     2500 5.8510791e+08          100 
   28100    46.702593     2500 6.0458876e+08          100 
   28200    46.877492     2500 6.2335488e+08          100 
   28300    47.049453     2500 6.4132905e+08          100 
   28400    47.218383     2500 6.5859564e+08          100 
   28500    47.389194     2500 6.7534995e+08          100 
   28600    47.561127     2500 6.9172745e+08          100 
   28700    47.730196     2500 7.0765623e+08          100 
   28800    47.903867     2500 7.2301982e+08          100 
   28900    48.072244     2500 7.3777655e+08          100 
   29000    48.240762     2500 7.5197373e+08          100 
   29100    48.418307     2500 7.6573613e+08          100 
   29200    48.588401     2500 7.7923292e+08          100 
   29300    48.757766     2500 7.9251791e+08          100 
   29400    48.925653     2500 8.0545939e+08          100 
   29500    49.094575     2500 8.1783643e+08          100 
   29600    49.267401     2500 8.294281e+08          100 
   29700    49.442779     2500 8.4013067e+08          100 
   29800    49.610677     2500 8.4994463e+08          100 
   29900    49.778832     2500 8.5901614e+08          100 
   30000    49.947526     2500 8.6755517e+08          100 
   30100    50.118372     2500 8.7591514e+08          100 
   30200    50.285959     2500 8.8419923e+08          100 
   30300    50.454268     2500 8.9235164e+08          100 
   30400    50.621453     2500 9.0028088e+08          100 
   30500    50.788499     2500 9.0791237e+08          100 
   30600    50.954931     2500 9.1508187e+08          100 
   30700    51.122927     2500 9.2167563e+08          100 
   30800    51.289767     2500 9.2763546e+08          100 
   30900    51.456216     2500 9.3298107e+08          100 
   31000    51.629319     2500 9.3777256e+08          100 
   31100    51.799325     2500 9.4212626e+08          100 
   31200    51.969108     2500 9.4622622e+08          100 
   31300    52.138184     2500 9.5010882e+08          100 
   31400    52.303861     2500 9.5375653e+08          100 
   31500    52.470279     2500 9.5712391e+08          100 
   31600     52.63521     2500 9.6015674e+08          100 
   31700    52.801803     2500 9.6284875e+08          100 
   31800    52.966654     2500 9.6521484e+08          100 
   31900    53.135852     2500 9.6724521e+08          100 
   32000    53.302449     2500 9.6894747e+08          100 
   32100    53.469624     2500 9.7036212e+08          100 
   32200    53.632632     2500 9.7154826e+08          100 
   32300    53.797686     2500 9.7255718e+08          100 
   32400    53.964253     2500 9.7340966e+08          100 
   32500    54.131966     2500 9.7408599e+08          100 
   32600    54.298073     2500 9.7458585e+08          100 
   32700     54.46196     2500 9.7490804e+08          100 
   32800    54.625565     2500 9.7497486e+08          100 
   32900    54.790137     2500 9.747088e+08          100 
   33000    54.954884     2500 9.740697e+08          100 
   33100    55.123171     2500  9.73069e+08          100 
   33200     55.28679     2500 9.7176743e+08          100 
   33300    55.452224     2500 9.7031997e+08          100 
   33400    55.616293     2500 9.6877436e+08          100 
   33500    55.785895     2500 9.6710514e+08          100 
   33600    55.949491     2500 9.6528736e+08          100 
   33700    56.110731     2500 9.6329644e+08          100 
   33800    56.274288     2500 9.6110863e+08          100 
   33900    56.443017     2500 9.5870205e+08          100 
   34000    56.608127     2500 9.560605e+08          100 
   34100    56.773544     2500 9.5317563e+08          100 
   34200    56.944656     2500 9.500548e+08          100 
   34300    57.107347     2500 9.467365e+08          100 
   34400    57.269468     2500 9.4323249e+08          100 
   34500    57.441558     2500 9.3954756e+08          100 
   34600    57.603192     2500 9.3569243e+08          100 
   34700    57.767756     2500 9.3167527e+08          100 
   34800    57.935048     2500 9.2748932e+08          100 
   34900    58.097961     2500 9.2313351e+08          100 
   35000    58.262881     2500 9.1860853e+08          100 
   35100    58.430546     2500 9.1391661e+08          100 
   35200    58.591473     2500 9.0906658e+08          100 
   35300    58.756503     2500 9.0405011e+08          100 
   35400    58.921542     2500 8.9885946e+08          100 
   35500    59.082679     2500 8.9349471e+08          100 
   35600    59.245314     2500 8.8796105e+08          100 
   35700    59.409834     2500 8.8227064e+08          100 
   35800    59.573285     2500 8.7644316e+08          100 
   35900    59.738405     2500 8.7046766e+08          100 
   36000    59.902321     2500 8.6433391e+08          100 
   36100    60.067034     2500 8.5803529e+08          100 
   36200     60.22935     2500 8.5156855e+08          100 
   36300    60.392363     2500 8.4493428e+08          100 
   36400    60.553806     2500 8.3814142e+08          100 
   36500    60.717446     2500 8.3119398e+08          100 
   36600    60.888285     2500 8.2409805e+08          100 
   36700    61.049225     2500 8.1687905e+08          100 
   36800    61.211079     2500 8.0955442e+08          100 
   36900    61.374917     2500 8.0210974e+08          100 
   37000    61.538458     2500 7.9453583e+08          100 
   37100    61.699246     2500 7.8682867e+08          100 
   37200    61.866411     2500 7.7898843e+08          100 
   37300    62.028931     2500 7.7102423e+08          100 
   37400    62.190908     2500 7.6295026e+08          100 
   37500    62.354911     2500 7.5476488e+08          100 
   37600    62.519474     2500 7.464704e+08          100 
   37700    62.684079     2500 7.3808556e+08          100 
   37800    62.847987     2500 7.2962454e+08          100 
   37900    63.009762     2500 7.2108008e+08          100 
   38000    63.172156     2500 7.1245092e+08          100 
   38100    63.337131     2500 7.0374221e+08          100 
   38200    63.505983     2500 6.9497651e+08          100 
   38300    63.672099     2500 6.8615885e+08          100 
   38400    63.833666     2500 6.7728768e+08          100 
   38500    63.995567     2500 6.683645e+08          100 
   38600    64.156029     2500 6.5939776e+08          100 
   38700    64.315431     2500 6.5040102e+08          100 
   38800    64.477958     2500 6.4137093e+08          100 
   38900    64.640761     2500 6.3230608e+08          100 
   39000    64.802504     2500 6.2321078e+08          100 
   39100    64.972382     2500 6.1409834e+08          100 
   39200    65.133513     2500 6.049673e+08          100 
   39300    65.292861     2500 5.958176e+08          100 
   39400    65.461778     2500 5.8665087e+08          100 
   39500    65.622084     2500 5.7747923e+08          100 
   39600    65.783941     2500 5.6830657e+08          100 
   39700    65.945809     2500 5.5913139e+08          100 
   39800    66.104938     2500 5.4996653e+08          100 
   39900    66.265569     2500 5.4081898e+08          100 
   40000    66.426307     2500 5.3169004e+08          100 
   40100    66.592721     2500 5.2258907e+08          100 
   40200    66.752321     2500 5.1352451e+08          100 
   40300    66.915806     2500 5.045039e+08          100 
   40400    67.078168     2500 4.9552955e+08          100 
   40500    67.239585     2500 4.8660179e+08          100 
   40600    67.401466     2500 4.7772233e+08          100 
   40700    67.560452     2500 4.6889269e+08          100 
   40800    67.720013     2500 4.6011405e+08          100 
   40900    67.879005     2500 4.513873e+08          100 
   41000    68.038671     2500 4.4271415e+08          100 
   41100    68.197118     2500 4.3409696e+08          100 
   41200    68.359192     2500 4.255357e+08          100 
   41300    68.521779     2500 4.1703012e+08          100 
   41400    68.683617     2500 4.085814e+08          100 
   41500    68.842002     2500 4.0019058e+08          100 
   41600    69.002437     2500 3.9185643e+08          100 
   41700    69.162357     2500 3.8358022e+08          100 
   41800    69.321106     2500 3.7536579e+08          100 
   41900     69.48313     2500 3.6721651e+08          100 
   42000    69.644577     2500 3.5913478e+08          100 
   42100    69.806084     2450 3.3567173e+08          100 
   42200    69.963139     2450 3.2822002e+08          100 
   42300    70.118751     2450 3.2083399e+08          100 
   42400    70.275174     2450 3.1351407e+08          100 
   42500    70.430874     2450 3.0626034e+08          100 
   42600    70.587556     2450 2.9907281e+08          100 
   42700    70.742965     2450 2.9195165e+08          100 
   42800    70.899794     2450 2.848975e+08          100 
   42900    71.056027     2450 2.7791308e+08          100 
   43000    71.232557     2450 2.7100024e+08          100 
   43100    71.388879     2450 2.6416008e+08          100 
   43200    71.551477     2450 2.5739371e+08          100 
   43300    71.718731     2450 2.5070222e+08          100 
   43400    71.889376     2450 2.4408668e+08          100 
   43500    72.046017     2450 2.3754817e+08          100 
   43600     72.20098     2450 2.3108774e+08          100 
   43700    72.355188     2450 2.2470642e+08          100 
   43800    72.512905     2450 2.1840527e+08          100 
   43900    72.667779     2450 2.1218528e+08          100 
   44000    72.822586     2450 2.0604747e+08          100 
   44100    72.983749     2450 1.9999275e+08          100 
   44200    73.141779     2450 1.9402007e+08          100 
   44300    73.298212     2450 1.8812987e+08          100 
   44400    73.456435     2450 1.8232408e+08          100 
   44500    73.614957     2450 1.7660467e+08          100 
   44600    73.770509     2400 1.6626861e+08          100 
   44700    73.928398     2400 1.6099231e+08          100 
   44800    74.085258     2400 1.5579984e+08          100 
   44900    74.238756     2400 1.5069345e+08          100 
   45000    74.390052     2400 1.4567413e+08          100 
   45100    74.544433     2400 1.4074022e+08          100 
   45200    74.697784     2400 1.3589203e+08          100 
   45300     74.85005     2400 1.3113012e+08          100 
   45400    75.006767     2400 1.2645507e+08          100 
   45500    75.161292     2400 1.2186823e+08          100 
   45600    75.313867     2400 1.1737216e+08          100 
   45700    75.472484     2400 1.1296523e+08          100 
   45800    75.626881     2400 1.0864075e+08          100 
   45900    75.778637     2400 1.0440083e+08          100 
   46000    75.931558     2400 1.0024985e+08          100 
   46100    76.082914     2400     96191031          100 
   46200     76.23961     2400     92227562          100 
   46300    76.394564     2400     88362043          100 
   46400    76.550713     2400     84597982          100 
   46500    76.707916     2400     80936569          100 
   46600    76.861595     2400     77375806          100 
   46700    77.018564     2400     73912468          100 
   46800    77.171427     2400     70542946          100 
   46900    77.323761     2400     67264165          100 
   47000    77.481695     2400     64074584          100 
   47100    77.635488     2400     60980094          100 
   47200    77.786676     2400     57983996          100 
   47300    77.943666     2400     55086770          100 
   47400    78.095517     2400     52288883          100 
   47500    78.247706     2400     49590785          100 
   47600     78.39876     2400     46992909          100 
   47700    78.557025     2400     44495671          100 
   47800    78.715996     2400     42099473          100 
   47900    78.867824     2400     39804699          100 
   48000    79.022116     2400     37611717          100 
   48100    79.175691     2400     35520877          100 
   48200    79.327365     2400     33532515          100 
   48300    79.480152     2400     31643072          100 
   48400    79.634044     2400     29847951          100 
   48500    79.786915     2400     28150027          100 
   48600    79.941183     2400     26553577          100 
   48700    80.097402     2400     25063342          100 
   48800    80.250889     2400     23683533          100 
   48900    80.403336     2400     22414772          100 
   49000     80.56079     2400     21250477          100 
   49100    80.720459     2400     20190904          100 
   49200    80.872848     2400     19237127          100 
   49300    81.026791     2400     18389662          100 
   49400    81.180884     2400     17641315          100 
   49500    81.336334     2400     16990487          100 
   49600    81.489202     2400     16438430          100 
   49700     81.64346     2400     15993613          100 
   49800     81.80156     2400     15660165          100 
   49900    81.954669     2400     15440601          100 
   50000    82.112774     2400     15334707          100 
Loop time of 82.1128 on 1 procs for 50000 steps with 2400 atoms

99.4% CPU use with 1 MPI tasks x no OpenMP threads

MPI task timing breakdown:
Section |  min time  |  avg time  |  max time  |%varavg| %total
---------------------------------------------------------------
Pair    | 2.9259     | 2.9259     | 2.9259     |   0.0 |  3.56
Neigh   | 0.372      | 0.372      | 0.372      |   0.0 |  0.45
Comm    | 0.13258    | 0.13258    | 0.13258    |   0.0 |  0.16
Output  | 12.587     | 12.587     | 12.587     |   0.0 | 15.33
Modify  | 65.656     | 65.656     | 65.656     |   0.0 | 79.96
Other   |            | 0.4398     |            |       |  0.54

Nlocal:    2400 ave 2400 max 2400 min
Histogram: 1 0 0 0 0 0 0 0 0 0
Nghost:    0 ave 0 max 0 min
Histogram: 1 0 0 0 0 0 0 0 0 0
Neighs:    850 ave 850 max 850 min
Histogram: 1 0 0 0 0 0 0 0 0 0

Total # of neighbors = 850
Ave neighs/atom = 0.354167
Neighbor list builds = 279
Dangerous builds = 0

Please see the log.cite file for references relevant to this simulation

Total wall time: 0:01:22
