atom_style  sphere
dimension   2
units       si

###############################################
# Size, contact parameters
###############################################

variable    diam equal 5000
variable    rad equal ${diam}*0.5
variable    rad equal 5000*0.5

variable    kn equal 1e6
variable    damp equal 0.0
variable    coeffFric equal 0.3
variable    kt equal 0.5*${kn}
variable    kt equal 0.5*1000000
variable    thickness equal 1.0 #in m
variable    dens equal 900*${thickness}
variable    dens equal 900*1
variable    minmass equal PI*${rad}^2*${dens}
variable    minmass equal PI*2500^2*${dens}
variable    minmass equal PI*2500^2*900

variable    omega equal 0.5*10^(-3)
variable    lambda equal 8.0*10^5

variable    airDensity equal 1.225
variable    waterDensity equal 1017.0
variable    windDragCoefficient equal 0.015
variable    oceanDragCoefficient equal 0.0045

###############################################
# Geometry-related parameters
###############################################

variable    nx equal  100
variable    ny equal  0.5*${nx}
variable    ny equal  0.5*100
variable    n_actual  equal floor(${nx}*${ny})
variable    n_actual  equal floor(100*${ny})
variable    n_actual  equal floor(100*50)
variable    lx equal  ${nx}*${diam}
variable    lx equal  100*${diam}
variable    lx equal  100*5000
variable    ly equal  ${lx}*1.5
variable    ly equal  500000*1.5
variable    ly2 equal ${lx}
variable    ly2 equal 500000

###############################################
# Create box
###############################################
boundary    f f p

variable    x0 equal 0
variable    x1 equal ${lx}
variable    x1 equal 500000
variable    y0 equal 0
variable    y1 equal ${ly}
variable    y1 equal 750000
region      boxreg block ${x0} ${x1} ${y0} ${y1} -${rad} ${rad} units box
region      boxreg block 0 ${x1} ${y0} ${y1} -${rad} ${rad} units box
region      boxreg block 0 500000 ${y0} ${y1} -${rad} ${rad} units box
region      boxreg block 0 500000 0 ${y1} -${rad} ${rad} units box
region      boxreg block 0 500000 0 750000 -${rad} ${rad} units box
region      boxreg block 0 500000 0 750000 -2500 ${rad} units box
region      boxreg block 0 500000 0 750000 -2500 2500 units box
create_box  1 boxreg
Created orthogonal box = (0 0 -2500) to (500000 750000 2500)
  1 by 1 by 1 MPI processor grid

lattice	    sq ${diam} origin 0.5 0.5 0
lattice	    sq 5000 origin 0.5 0.5 0
Lattice spacing in x,y,z = 5000 5000 5000
region      topthird block ${x0} ${x1} ${ly2} ${y1} -${rad} ${rad} units box
region      topthird block 0 ${x1} ${ly2} ${y1} -${rad} ${rad} units box
region      topthird block 0 500000 ${ly2} ${y1} -${rad} ${rad} units box
region      topthird block 0 500000 500000 ${y1} -${rad} ${rad} units box
region      topthird block 0 500000 500000 750000 -${rad} ${rad} units box
region      topthird block 0 500000 500000 750000 -2500 ${rad} units box
region      topthird block 0 500000 500000 750000 -2500 2500 units box

###############################################
# Create atoms
###############################################

create_atoms  1 region topthird
Created 5000 atoms
  Time spent = 0.00145807 secs

###############################################
# Includes
###############################################

include     in.gran_1.funnel
ERROR on proc 0: Cannot open input script in.gran_1.funnel (../input.cpp:1041)
Last command: include     in.gran_1.funnel
