LAMMPS (17 Jan 2018)
###############################################
# General settings
###############################################

log         3D_trial.log
