atom_style  sphere
dimension   2
units       si

###############################################
# Size, contact parameters
###############################################

variable    diam equal 5000
variable    rad equal ${diam}*0.5
variable    rad equal 5000*0.5

variable    kn equal 1e6
variable    damp equal 0.0
variable    coeffFric equal 0.3
variable    kt equal 0.5*${kn}
variable    kt equal 0.5*1000000
variable    thickness equal 1.0 #in m
variable    dens equal 900*${thickness}
variable    dens equal 900*1
variable    minmass equal PI*${rad}^2*${dens}
variable    minmass equal PI*2500^2*${dens}
variable    minmass equal PI*2500^2*900

variable    omega equal 0.5*10^(-3)
variable    lambda equal 8.0*10^5

variable    airDensity equal 1.225
variable    waterDensity equal 1017.0
variable    windDragCoefficient equal 0.015
variable    oceanDragCoefficient equal 0.0045

###############################################
# Geometry-related parameters
###############################################

variable    nx equal  100
variable    ny equal  0.5*${nx}
variable    ny equal  0.5*100
variable    n_actual  equal floor(${nx}*${ny})
variable    n_actual  equal floor(100*${ny})
variable    n_actual  equal floor(100*50)
variable    lx equal  ${nx}*${diam}
variable    lx equal  100*${diam}
variable    lx equal  100*5000
variable    ly equal  ${lx}*1.5
variable    ly equal  500000*1.5
variable    ly2 equal ${lx}
variable    ly2 equal 500000

###############################################
# Create box
###############################################
boundary    f f p

variable    x0 equal 0
variable    x1 equal ${lx}
variable    x1 equal 500000
variable    y0 equal 0
variable    y1 equal ${ly}
variable    y1 equal 750000
region      boxreg block ${x0} ${x1} ${y0} ${y1} -${rad} ${rad} units box
region      boxreg block 0 ${x1} ${y0} ${y1} -${rad} ${rad} units box
region      boxreg block 0 500000 ${y0} ${y1} -${rad} ${rad} units box
region      boxreg block 0 500000 0 ${y1} -${rad} ${rad} units box
region      boxreg block 0 500000 0 750000 -${rad} ${rad} units box
region      boxreg block 0 500000 0 750000 -2500 ${rad} units box
region      boxreg block 0 500000 0 750000 -2500 2500 units box
create_box  1 boxreg
Created orthogonal box = (0 0 -2500) to (500000 750000 2500)
  1 by 1 by 1 MPI processor grid

lattice	    sq ${diam} origin 0.5 0.5 0
lattice	    sq 5000 origin 0.5 0.5 0
Lattice spacing in x,y,z = 5000 5000 5000
region      topthird block ${x0} ${x1} ${ly2} ${y1} -${rad} ${rad} units box
region      topthird block 0 ${x1} ${ly2} ${y1} -${rad} ${rad} units box
region      topthird block 0 500000 ${ly2} ${y1} -${rad} ${rad} units box
region      topthird block 0 500000 500000 ${y1} -${rad} ${rad} units box
region      topthird block 0 500000 500000 750000 -${rad} ${rad} units box
region      topthird block 0 500000 500000 750000 -2500 ${rad} units box
region      topthird block 0 500000 500000 750000 -2500 2500 units box

###############################################
# Create atoms
###############################################

create_atoms  1 region topthird
Created 5000 atoms
  Time spent = 0.00217485 secs

###############################################
# Includes
###############################################

include     in.gran_1.funnel
###################
# funnel          #
###################
variable xfunl equal ${lx}*0.40
variable xfunl equal 500000*0.40
variable xfunr equal ${lx}*0.60
variable xfunr equal 500000*0.60
variable yfunb equal ${ly}*0.50
variable yfunb equal 750000*0.50
variable ystmb equal ${ly2}*0.50
variable ystmb equal 500000*0.50

region ltemp block ${x0} ${xfunl} ${y0} ${y1} -${rad} ${rad} units box
region ltemp block 0 ${xfunl} ${y0} ${y1} -${rad} ${rad} units box
region ltemp block 0 200000 ${y0} ${y1} -${rad} ${rad} units box
region ltemp block 0 200000 0 ${y1} -${rad} ${rad} units box
region ltemp block 0 200000 0 750000 -${rad} ${rad} units box
region ltemp block 0 200000 0 750000 -2500 ${rad} units box
region ltemp block 0 200000 0 750000 -2500 2500 units box
region rtemp block ${xfunr} ${x1} ${y0} ${y1} -${rad} ${rad} units box
region rtemp block 300000 ${x1} ${y0} ${y1} -${rad} ${rad} units box
region rtemp block 300000 500000 ${y0} ${y1} -${rad} ${rad} units box
region rtemp block 300000 500000 0 ${y1} -${rad} ${rad} units box
region rtemp block 300000 500000 0 750000 -${rad} ${rad} units box
region rtemp block 300000 500000 0 750000 -2500 ${rad} units box
region rtemp block 300000 500000 0 750000 -2500 2500 units box
region lcone prism ${xfunl} ${x1} ${yfunb} ${ly2} -${rad} ${rad} -${xfunl} 0.0 0.0 units box
region lcone prism 200000 ${x1} ${yfunb} ${ly2} -${rad} ${rad} -${xfunl} 0.0 0.0 units box
region lcone prism 200000 500000 ${yfunb} ${ly2} -${rad} ${rad} -${xfunl} 0.0 0.0 units box
region lcone prism 200000 500000 375000 ${ly2} -${rad} ${rad} -${xfunl} 0.0 0.0 units box
region lcone prism 200000 500000 375000 500000 -${rad} ${rad} -${xfunl} 0.0 0.0 units box
region lcone prism 200000 500000 375000 500000 -2500 ${rad} -${xfunl} 0.0 0.0 units box
region lcone prism 200000 500000 375000 500000 -2500 2500 -${xfunl} 0.0 0.0 units box
region lcone prism 200000 500000 375000 500000 -2500 2500 -200000 0.0 0.0 units box
region rcone prism ${x0} ${xfunr} ${yfunb} ${ly2} -${rad} ${rad}  ${xfunl} 0.0 0.0 units box
region rcone prism 0 ${xfunr} ${yfunb} ${ly2} -${rad} ${rad}  ${xfunl} 0.0 0.0 units box
region rcone prism 0 300000 ${yfunb} ${ly2} -${rad} ${rad}  ${xfunl} 0.0 0.0 units box
region rcone prism 0 300000 375000 ${ly2} -${rad} ${rad}  ${xfunl} 0.0 0.0 units box
region rcone prism 0 300000 375000 500000 -${rad} ${rad}  ${xfunl} 0.0 0.0 units box
region rcone prism 0 300000 375000 500000 -2500 ${rad}  ${xfunl} 0.0 0.0 units box
region rcone prism 0 300000 375000 500000 -2500 2500  ${xfunl} 0.0 0.0 units box
region rcone prism 0 300000 375000 500000 -2500 2500  200000 0.0 0.0 units box

region lramp intersect 2 ltemp lcone
region rramp intersect 2 rtemp rcone

region steml block ${x0} ${xfunr} ${ystmb} ${lx} -${rad} ${rad} units box
region steml block 0 ${xfunr} ${ystmb} ${lx} -${rad} ${rad} units box
region steml block 0 300000 ${ystmb} ${lx} -${rad} ${rad} units box
region steml block 0 300000 250000 ${lx} -${rad} ${rad} units box
region steml block 0 300000 250000 500000 -${rad} ${rad} units box
region steml block 0 300000 250000 500000 -2500 ${rad} units box
region steml block 0 300000 250000 500000 -2500 2500 units box
region stemr block ${xfunl} ${x1} ${ystmb} ${lx} -${rad} ${rad} units box
region stemr block 200000 ${x1} ${ystmb} ${lx} -${rad} ${rad} units box
region stemr block 200000 500000 ${ystmb} ${lx} -${rad} ${rad} units box
region stemr block 200000 500000 250000 ${lx} -${rad} ${rad} units box
region stemr block 200000 500000 250000 500000 -${rad} ${rad} units box
region stemr block 200000 500000 250000 500000 -2500 ${rad} units box
region stemr block 200000 500000 250000 500000 -2500 2500 units box
region stem  intersect 2 steml stemr

region bottom  block ${x0} ${x1} ${y0} ${ystmb} -${rad} ${rad} units box
region bottom  block 0 ${x1} ${y0} ${ystmb} -${rad} ${rad} units box
region bottom  block 0 500000 ${y0} ${ystmb} -${rad} ${rad} units box
region bottom  block 0 500000 0 ${ystmb} -${rad} ${rad} units box
region bottom  block 0 500000 0 250000 -${rad} ${rad} units box
region bottom  block 0 500000 0 250000 -2500 ${rad} units box
region bottom  block 0 500000 0 250000 -2500 2500 units box

region fun union 5 topthird lramp rramp stem bottom
fix wall all wall/gran/region hooke 2e7 ${kt} ${damp} 0 ${coeffFric} 1 region fun
fix wall all wall/gran/region hooke 2e7 500000 ${damp} 0 ${coeffFric} 1 region fun
fix wall all wall/gran/region hooke 2e7 500000 0 0 ${coeffFric} 1 region fun
fix wall all wall/gran/region hooke 2e7 500000 0 0 0.3 1 region fun
include     in.gran_1.atoms
##################
# Atom Diameters #
##################
set   atom 1 diameter 4796.582749
  1 settings made for diameter
set   atom 2 diameter 3979.264750
  1 settings made for diameter
set   atom 3 diameter 3471.032823
  1 settings made for diameter
set   atom 4 diameter 5253.551197
  1 settings made for diameter
set   atom 5 diameter 5820.483581
  1 settings made for diameter
set   atom 6 diameter 5782.600648
  1 settings made for diameter
set   atom 7 diameter 4862.210982
  1 settings made for diameter
set   atom 8 diameter 5113.213398
  1 settings made for diameter
set   atom 9 diameter 3929.191316
  1 settings made for diameter
set   atom 10 diameter 4107.029972
  1 settings made for diameter
set   atom 11 diameter 4478.149978
  1 settings made for diameter
set   atom 12 diameter 5379.866706
  1 settings made for diameter
set   atom 13 diameter 5925.598815
  1 settings made for diameter
set   atom 14 diameter 4501.505471
  1 settings made for diameter
set   atom 15 diameter 4792.730815
  1 settings made for diameter
set   atom 16 diameter 4736.584896
  1 settings made for diameter
set   atom 17 diameter 4931.379601
  1 settings made for diameter
set   atom 18 diameter 3485.263630
  1 settings made for diameter
set   atom 19 diameter 4329.050462
  1 settings made for diameter
set   atom 20 diameter 4151.935772
  1 settings made for diameter
set   atom 21 diameter 4049.226798
  1 settings made for diameter
set   atom 22 diameter 5337.484992
  1 settings made for diameter
set   atom 23 diameter 6124.887105
  1 settings made for diameter
set   atom 24 diameter 5708.805577
  1 settings made for diameter
set   atom 25 diameter 5252.477165
  1 settings made for diameter
set   atom 26 diameter 4780.031455
  1 settings made for diameter
set   atom 27 diameter 5495.392164
  1 settings made for diameter
set   atom 28 diameter 3996.002854
  1 settings made for diameter
set   atom 29 diameter 3856.098452
  1 settings made for diameter
set   atom 30 diameter 4665.119707
  1 settings made for diameter
set   atom 31 diameter 3383.396225
  1 settings made for diameter
set   atom 32 diameter 4133.878879
  1 settings made for diameter
set   atom 33 diameter 4834.897519
  1 settings made for diameter
set   atom 34 diameter 3850.773588
  1 settings made for diameter
set   atom 35 diameter 6044.041527
  1 settings made for diameter
set   atom 36 diameter 5415.484660
  1 settings made for diameter
set   atom 37 diameter 5120.002705
  1 settings made for diameter
set   atom 38 diameter 3863.184230
  1 settings made for diameter
set   atom 39 diameter 2356.979325
  1 settings made for diameter
set   atom 40 diameter 4998.371616
  1 settings made for diameter
set   atom 41 diameter 6182.599300
  1 settings made for diameter
set   atom 42 diameter 5492.179986
  1 settings made for diameter
set   atom 43 diameter 5258.361782
  1 settings made for diameter
set   atom 44 diameter 5061.298935
  1 settings made for diameter
set   atom 45 diameter 3642.115335
  1 settings made for diameter
set   atom 46 diameter 3163.973543
  1 settings made for diameter
set   atom 47 diameter 5812.429455
  1 settings made for diameter
set   atom 48 diameter 5122.660464
  1 settings made for diameter
set   atom 49 diameter 5906.141021
  1 settings made for diameter
set   atom 50 diameter 5484.187594
  1 settings made for diameter
set   atom 51 diameter 7513.102663
  1 settings made for diameter
set   atom 52 diameter 5254.279025
  1 settings made for diameter
set   atom 53 diameter 4436.395804
  1 settings made for diameter
set   atom 54 diameter 5733.484678
  1 settings made for diameter
set   atom 55 diameter 4672.905514
  1 settings made for diameter
set   atom 56 diameter 5580.889526
  1 settings made for diameter
set   atom 57 diameter 3588.444591
  1 settings made for diameter
set   atom 58 diameter 5645.700275
  1 settings made for diameter
set   atom 59 diameter 5176.858665
  1 settings made for diameter
set   atom 60 diameter 6810.521452
  1 settings made for diameter
set   atom 61 diameter 5840.256233
  1 settings made for diameter
set   atom 62 diameter 3672.512495
  1 settings made for diameter
set   atom 63 diameter 6110.270577
  1 settings made for diameter
set   atom 64 diameter 5561.063380
  1 settings made for diameter
set   atom 65 diameter 5073.349339
  1 settings made for diameter
set   atom 66 diameter 3615.224051
  1 settings made for diameter
set   atom 67 diameter 5670.036497
  1 settings made for diameter
set   atom 68 diameter 4380.591762
  1 settings made for diameter
set   atom 69 diameter 3589.266487
  1 settings made for diameter
set   atom 70 diameter 6716.789009
  1 settings made for diameter
set   atom 71 diameter 3607.453883
  1 settings made for diameter
set   atom 72 diameter 5759.907207
  1 settings made for diameter
set   atom 73 diameter 7613.267534
  1 settings made for diameter
set   atom 74 diameter 4951.034564
  1 settings made for diameter
set   atom 75 diameter 5529.524195
  1 settings made for diameter
set   atom 76 diameter 5255.317229
  1 settings made for diameter
set   atom 77 diameter 6037.077922
  1 settings made for diameter
set   atom 78 diameter 5096.778991
  1 settings made for diameter
set   atom 79 diameter 6756.952362
  1 settings made for diameter
set   atom 80 diameter 4129.430033
  1 settings made for diameter
set   atom 81 diameter 6324.231674
  1 settings made for diameter
set   atom 82 diameter 3843.581611
  1 settings made for diameter
set   atom 83 diameter 3320.523234
  1 settings made for diameter
set   atom 84 diameter 4194.499887
  1 settings made for diameter
set   atom 85 diameter 4270.526783
  1 settings made for diameter
set   atom 86 diameter 5344.247943
  1 settings made for diameter
set   atom 87 diameter 5191.634685
  1 settings made for diameter
set   atom 88 diameter 4593.701164
  1 settings made for diameter
set   atom 89 diameter 4150.988095
  1 settings made for diameter
set   atom 90 diameter 4216.919178
  1 settings made for diameter
set   atom 91 diameter 4742.683364
  1 settings made for diameter
set   atom 92 diameter 4344.575316
  1 settings made for diameter
set   atom 93 diameter 5634.828209
  1 settings made for diameter
set   atom 94 diameter 5495.840160
  1 settings made for diameter
set   atom 95 diameter 6268.101240
  1 settings made for diameter
set   atom 96 diameter 4861.063325
  1 settings made for diameter
set   atom 97 diameter 5374.505904
  1 settings made for diameter
set   atom 98 diameter 5320.278486
  1 settings made for diameter
set   atom 99 diameter 6739.077725
  1 settings made for diameter
set   atom 100 diameter 4797.519845
  1 settings made for diameter
set   atom 101 diameter 4569.124876
  1 settings made for diameter
set   atom 102 diameter 4298.670460
  1 settings made for diameter
set   atom 103 diameter 5960.655781
  1 settings made for diameter
set   atom 104 diameter 6608.726703
  1 settings made for diameter
set   atom 105 diameter 5011.835777
  1 settings made for diameter
set   atom 106 diameter 7034.106227
  1 settings made for diameter
set   atom 107 diameter 6261.418507
  1 settings made for diameter
set   atom 108 diameter 4502.501840
  1 settings made for diameter
set   atom 109 diameter 3771.480778
  1 settings made for diameter
set   atom 110 diameter 4043.574686
  1 settings made for diameter
set   atom 111 diameter 4271.693866
  1 settings made for diameter
set   atom 112 diameter 5681.381566
  1 settings made for diameter
set   atom 113 diameter 4138.417632
  1 settings made for diameter
set   atom 114 diameter 3708.038861
  1 settings made for diameter
set   atom 115 diameter 5513.597946
  1 settings made for diameter
set   atom 116 diameter 3240.087008
  1 settings made for diameter
set   atom 117 diameter 4556.355133
  1 settings made for diameter
set   atom 118 diameter 6082.809983
  1 settings made for diameter
set   atom 119 diameter 3191.985097
  1 settings made for diameter
set   atom 120 diameter 4685.337837
  1 settings made for diameter
set   atom 121 diameter 5601.046055
  1 settings made for diameter
set   atom 122 diameter 4929.797645
  1 settings made for diameter
set   atom 123 diameter 3586.914039
  1 settings made for diameter
set   atom 124 diameter 3103.000588
  1 settings made for diameter
set   atom 125 diameter 3554.903685
  1 settings made for diameter
set   atom 126 diameter 4015.922729
  1 settings made for diameter
set   atom 127 diameter 5542.213485
  1 settings made for diameter
set   atom 128 diameter 4487.309341
  1 settings made for diameter
set   atom 129 diameter 3936.019129
  1 settings made for diameter
set   atom 130 diameter 4044.708067
  1 settings made for diameter
set   atom 131 diameter 5980.744119
  1 settings made for diameter
set   atom 132 diameter 4094.619942
  1 settings made for diameter
set   atom 133 diameter 4927.016321
  1 settings made for diameter
set   atom 134 diameter 5546.385067
  1 settings made for diameter
set   atom 135 diameter 5325.360976
  1 settings made for diameter
set   atom 136 diameter 5484.830901
  1 settings made for diameter
set   atom 137 diameter 5085.527840
  1 settings made for diameter
set   atom 138 diameter 5351.596516
  1 settings made for diameter
set   atom 139 diameter 4730.358947
  1 settings made for diameter
set   atom 140 diameter 4715.548688
  1 settings made for diameter
set   atom 141 diameter 5867.730574
  1 settings made for diameter
set   atom 142 diameter 5013.555811
  1 settings made for diameter
set   atom 143 diameter 3951.754816
  1 settings made for diameter
set   atom 144 diameter 4499.639732
  1 settings made for diameter
set   atom 145 diameter 4375.680123
  1 settings made for diameter
set   atom 146 diameter 5542.273205
  1 settings made for diameter
set   atom 147 diameter 5054.981354
  1 settings made for diameter
set   atom 148 diameter 6030.058431
  1 settings made for diameter
set   atom 149 diameter 5170.015013
  1 settings made for diameter
set   atom 150 diameter 3557.267265
  1 settings made for diameter
set   atom 151 diameter 4927.310275
  1 settings made for diameter
set   atom 152 diameter 4688.678634
  1 settings made for diameter
set   atom 153 diameter 4402.521041
  1 settings made for diameter
set   atom 154 diameter 4517.562974
  1 settings made for diameter
set   atom 155 diameter 4182.530906
  1 settings made for diameter
set   atom 156 diameter 5903.416504
  1 settings made for diameter
set   atom 157 diameter 3955.561446
  1 settings made for diameter
set   atom 158 diameter 3761.317912
  1 settings made for diameter
set   atom 159 diameter 4118.046191
  1 settings made for diameter
set   atom 160 diameter 4366.191401
  1 settings made for diameter
set   atom 161 diameter 5553.162281
  1 settings made for diameter
set   atom 162 diameter 2938.656001
  1 settings made for diameter
set   atom 163 diameter 4940.780602
  1 settings made for diameter
set   atom 164 diameter 4231.605614
  1 settings made for diameter
set   atom 165 diameter 4008.920055
  1 settings made for diameter
set   atom 166 diameter 3942.530549
  1 settings made for diameter
set   atom 167 diameter 3379.841348
  1 settings made for diameter
set   atom 168 diameter 4827.822087
  1 settings made for diameter
set   atom 169 diameter 3997.104372
  1 settings made for diameter
set   atom 170 diameter 3260.669692
  1 settings made for diameter
set   atom 171 diameter 5123.524382
  1 settings made for diameter
set   atom 172 diameter 4392.681369
  1 settings made for diameter
set   atom 173 diameter 3038.330171
  1 settings made for diameter
set   atom 174 diameter 4333.195241
  1 settings made for diameter
set   atom 175 diameter 7199.212623
  1 settings made for diameter
set   atom 176 diameter 4523.698233
  1 settings made for diameter
set   atom 177 diameter 2240.385286
  1 settings made for diameter
set   atom 178 diameter 5091.387663
  1 settings made for diameter
set   atom 179 diameter 5293.897811
  1 settings made for diameter
set   atom 180 diameter 3912.368120
  1 settings made for diameter
set   atom 181 diameter 6142.937243
  1 settings made for diameter
set   atom 182 diameter 4727.240256
  1 settings made for diameter
set   atom 183 diameter 4602.245596
  1 settings made for diameter
set   atom 184 diameter 4790.079191
  1 settings made for diameter
set   atom 185 diameter 5082.466493
  1 settings made for diameter
set   atom 186 diameter 4763.453236
  1 settings made for diameter
set   atom 187 diameter 5445.874319
  1 settings made for diameter
set   atom 188 diameter 3815.262167
  1 settings made for diameter
set   atom 189 diameter 4704.721507
  1 settings made for diameter
set   atom 190 diameter 4177.940664
  1 settings made for diameter
set   atom 191 diameter 4571.695003
  1 settings made for diameter
set   atom 192 diameter 5896.463667
  1 settings made for diameter
set   atom 193 diameter 5022.799371
  1 settings made for diameter
set   atom 194 diameter 3784.498987
  1 settings made for diameter
set   atom 195 diameter 3780.226738
  1 settings made for diameter
set   atom 196 diameter 6481.794930
  1 settings made for diameter
set   atom 197 diameter 5224.122747
  1 settings made for diameter
set   atom 198 diameter 7042.117155
  1 settings made for diameter
set   atom 199 diameter 4819.732901
  1 settings made for diameter
set   atom 200 diameter 6326.389244
  1 settings made for diameter
set   atom 201 diameter 4471.579344
  1 settings made for diameter
set   atom 202 diameter 5873.685098
  1 settings made for diameter
set   atom 203 diameter 4962.088145
  1 settings made for diameter
set   atom 204 diameter 3999.480714
  1 settings made for diameter
set   atom 205 diameter 4359.624301
  1 settings made for diameter
set   atom 206 diameter 6946.205748
  1 settings made for diameter
set   atom 207 diameter 2586.119575
  1 settings made for diameter
set   atom 208 diameter 5433.798871
  1 settings made for diameter
set   atom 209 diameter 4011.768011
  1 settings made for diameter
set   atom 210 diameter 5499.113694
  1 settings made for diameter
set   atom 211 diameter 3633.867879
  1 settings made for diameter
set   atom 212 diameter 5922.501416
  1 settings made for diameter
set   atom 213 diameter 5198.767004
  1 settings made for diameter
set   atom 214 diameter 5987.174909
  1 settings made for diameter
set   atom 215 diameter 6013.143330
  1 settings made for diameter
set   atom 216 diameter 2765.199669
  1 settings made for diameter
set   atom 217 diameter 4901.411152
  1 settings made for diameter
set   atom 218 diameter 5110.368588
  1 settings made for diameter
set   atom 219 diameter 5664.975240
  1 settings made for diameter
set   atom 220 diameter 4382.736241
  1 settings made for diameter
set   atom 221 diameter 5927.432520
  1 settings made for diameter
set   atom 222 diameter 4651.276912
  1 settings made for diameter
set   atom 223 diameter 4384.416804
  1 settings made for diameter
set   atom 224 diameter 3693.633133
  1 settings made for diameter
set   atom 225 diameter 4516.427566
  1 settings made for diameter
set   atom 226 diameter 5481.784846
  1 settings made for diameter
set   atom 227 diameter 5637.594169
  1 settings made for diameter
set   atom 228 diameter 4937.141481
  1 settings made for diameter
set   atom 229 diameter 5043.050912
  1 settings made for diameter
set   atom 230 diameter 5816.201310
  1 settings made for diameter
set   atom 231 diameter 5693.809666
  1 settings made for diameter
set   atom 232 diameter 5109.537141
  1 settings made for diameter
set   atom 233 diameter 6483.187223
  1 settings made for diameter
set   atom 234 diameter 3829.128695
  1 settings made for diameter
set   atom 235 diameter 5945.646830
  1 settings made for diameter
set   atom 236 diameter 6759.896628
  1 settings made for diameter
set   atom 237 diameter 5538.887128
  1 settings made for diameter
set   atom 238 diameter 7021.473808
  1 settings made for diameter
set   atom 239 diameter 5416.375014
  1 settings made for diameter
set   atom 240 diameter 6059.585029
  1 settings made for diameter
set   atom 241 diameter 2720.682863
  1 settings made for diameter
set   atom 242 diameter 4955.549369
  1 settings made for diameter
set   atom 243 diameter 5701.863308
  1 settings made for diameter
set   atom 244 diameter 3563.631201
  1 settings made for diameter
set   atom 245 diameter 4238.811451
  1 settings made for diameter
set   atom 246 diameter 4468.585762
  1 settings made for diameter
set   atom 247 diameter 5885.025696
  1 settings made for diameter
set   atom 248 diameter 2837.575485
  1 settings made for diameter
set   atom 249 diameter 5325.016327
  1 settings made for diameter
set   atom 250 diameter 5200.763599
  1 settings made for diameter
set   atom 251 diameter 5017.133254
  1 settings made for diameter
set   atom 252 diameter 4862.639875
  1 settings made for diameter
set   atom 253 diameter 5185.336378
  1 settings made for diameter
set   atom 254 diameter 4432.578346
  1 settings made for diameter
set   atom 255 diameter 6684.564935
  1 settings made for diameter
set   atom 256 diameter 3968.644527
  1 settings made for diameter
set   atom 257 diameter 4688.673946
  1 settings made for diameter
set   atom 258 diameter 2635.862114
  1 settings made for diameter
set   atom 259 diameter 5292.640584
  1 settings made for diameter
set   atom 260 diameter 6166.501992
  1 settings made for diameter
set   atom 261 diameter 5065.129176
  1 settings made for diameter
set   atom 262 diameter 5936.017946
  1 settings made for diameter
set   atom 263 diameter 5305.167650
  1 settings made for diameter
set   atom 264 diameter 4861.079132
  1 settings made for diameter
set   atom 265 diameter 4003.048043
  1 settings made for diameter
set   atom 266 diameter 5390.221014
  1 settings made for diameter
set   atom 267 diameter 4712.330244
  1 settings made for diameter
set   atom 268 diameter 4805.874003
  1 settings made for diameter
set   atom 269 diameter 5227.207815
  1 settings made for diameter
set   atom 270 diameter 5697.783992
  1 settings made for diameter
set   atom 271 diameter 4667.358845
  1 settings made for diameter
set   atom 272 diameter 4091.307062
  1 settings made for diameter
set   atom 273 diameter 6372.615428
  1 settings made for diameter
set   atom 274 diameter 4295.378949
  1 settings made for diameter
set   atom 275 diameter 5615.420110
  1 settings made for diameter
set   atom 276 diameter 7565.341999
  1 settings made for diameter
set   atom 277 diameter 5923.502785
  1 settings made for diameter
set   atom 278 diameter 4281.493836
  1 settings made for diameter
set   atom 279 diameter 4612.677279
  1 settings made for diameter
set   atom 280 diameter 4973.827717
  1 settings made for diameter
set   atom 281 diameter 6342.252427
  1 settings made for diameter
set   atom 282 diameter 6691.388697
  1 settings made for diameter
set   atom 283 diameter 4840.838922
  1 settings made for diameter
set   atom 284 diameter 5135.688913
  1 settings made for diameter
set   atom 285 diameter 5343.995532
  1 settings made for diameter
set   atom 286 diameter 4020.318478
  1 settings made for diameter
set   atom 287 diameter 6045.459945
  1 settings made for diameter
set   atom 288 diameter 4245.720583
  1 settings made for diameter
set   atom 289 diameter 5908.098082
  1 settings made for diameter
set   atom 290 diameter 6048.695814
  1 settings made for diameter
set   atom 291 diameter 6133.922410
  1 settings made for diameter
set   atom 292 diameter 3719.842864
  1 settings made for diameter
set   atom 293 diameter 4178.397789
  1 settings made for diameter
set   atom 294 diameter 3095.475169
  1 settings made for diameter
set   atom 295 diameter 4166.082301
  1 settings made for diameter
set   atom 296 diameter 4123.600226
  1 settings made for diameter
set   atom 297 diameter 4850.141548
  1 settings made for diameter
set   atom 298 diameter 5163.554232
  1 settings made for diameter
set   atom 299 diameter 3382.697479
  1 settings made for diameter
set   atom 300 diameter 6817.315723
  1 settings made for diameter
set   atom 301 diameter 4319.793662
  1 settings made for diameter
set   atom 302 diameter 6098.139114
  1 settings made for diameter
set   atom 303 diameter 4472.165199
  1 settings made for diameter
set   atom 304 diameter 4203.257975
  1 settings made for diameter
set   atom 305 diameter 5188.810436
  1 settings made for diameter
set   atom 306 diameter 4730.407606
  1 settings made for diameter
set   atom 307 diameter 6057.217865
  1 settings made for diameter
set   atom 308 diameter 5062.713454
  1 settings made for diameter
set   atom 309 diameter 6125.339529
  1 settings made for diameter
set   atom 310 diameter 4527.081009
  1 settings made for diameter
set   atom 311 diameter 5347.481664
  1 settings made for diameter
set   atom 312 diameter 4850.006007
  1 settings made for diameter
set   atom 313 diameter 3970.247643
  1 settings made for diameter
set   atom 314 diameter 5147.669155
  1 settings made for diameter
set   atom 315 diameter 3979.817923
  1 settings made for diameter
set   atom 316 diameter 5011.305803
  1 settings made for diameter
set   atom 317 diameter 5138.311282
  1 settings made for diameter
set   atom 318 diameter 5264.058205
  1 settings made for diameter
set   atom 319 diameter 4659.591307
  1 settings made for diameter
set   atom 320 diameter 6327.901515
  1 settings made for diameter
set   atom 321 diameter 4048.366567
  1 settings made for diameter
set   atom 322 diameter 6355.415504
  1 settings made for diameter
set   atom 323 diameter 4362.186051
  1 settings made for diameter
set   atom 324 diameter 5690.560211
  1 settings made for diameter
set   atom 325 diameter 4948.920120
  1 settings made for diameter
set   atom 326 diameter 3115.912591
  1 settings made for diameter
set   atom 327 diameter 4493.481037
  1 settings made for diameter
set   atom 328 diameter 3307.115617
  1 settings made for diameter
set   atom 329 diameter 5924.887546
  1 settings made for diameter
set   atom 330 diameter 4002.156057
  1 settings made for diameter
set   atom 331 diameter 4138.163459
  1 settings made for diameter
set   atom 332 diameter 4174.519308
  1 settings made for diameter
set   atom 333 diameter 3486.221544
  1 settings made for diameter
set   atom 334 diameter 4684.495700
  1 settings made for diameter
set   atom 335 diameter 6230.494084
  1 settings made for diameter
set   atom 336 diameter 6458.821195
  1 settings made for diameter
set   atom 337 diameter 5418.616048
  1 settings made for diameter
set   atom 338 diameter 4601.272421
  1 settings made for diameter
set   atom 339 diameter 5493.324676
  1 settings made for diameter
set   atom 340 diameter 5740.681650
  1 settings made for diameter
set   atom 341 diameter 5926.609876
  1 settings made for diameter
set   atom 342 diameter 6051.142783
  1 settings made for diameter
set   atom 343 diameter 5836.149680
  1 settings made for diameter
set   atom 344 diameter 3261.210078
  1 settings made for diameter
set   atom 345 diameter 4345.551452
  1 settings made for diameter
set   atom 346 diameter 6704.063653
  1 settings made for diameter
set   atom 347 diameter 3653.407129
  1 settings made for diameter
set   atom 348 diameter 3871.884721
  1 settings made for diameter
set   atom 349 diameter 3856.008410
  1 settings made for diameter
set   atom 350 diameter 5246.199841
  1 settings made for diameter
set   atom 351 diameter 4390.664627
  1 settings made for diameter
set   atom 352 diameter 5279.394418
  1 settings made for diameter
set   atom 353 diameter 3673.744751
  1 settings made for diameter
set   atom 354 diameter 5205.425893
  1 settings made for diameter
set   atom 355 diameter 6116.176391
  1 settings made for diameter
set   atom 356 diameter 7447.370599
  1 settings made for diameter
set   atom 357 diameter 4924.604109
  1 settings made for diameter
set   atom 358 diameter 4385.058610
  1 settings made for diameter
set   atom 359 diameter 4733.320338
  1 settings made for diameter
set   atom 360 diameter 7184.194310
  1 settings made for diameter
set   atom 361 diameter 2899.426495
  1 settings made for diameter
set   atom 362 diameter 2924.370851
  1 settings made for diameter
set   atom 363 diameter 3867.672399
  1 settings made for diameter
set   atom 364 diameter 4290.301808
  1 settings made for diameter
set   atom 365 diameter 5399.731007
  1 settings made for diameter
set   atom 366 diameter 4660.716947
  1 settings made for diameter
set   atom 367 diameter 3888.214112
  1 settings made for diameter
set   atom 368 diameter 5891.047863
  1 settings made for diameter
set   atom 369 diameter 6038.784004
  1 settings made for diameter
set   atom 370 diameter 6902.808025
  1 settings made for diameter
set   atom 371 diameter 6644.760246
  1 settings made for diameter
set   atom 372 diameter 4254.168023
  1 settings made for diameter
set   atom 373 diameter 5629.193253
  1 settings made for diameter
set   atom 374 diameter 5090.243198
  1 settings made for diameter
set   atom 375 diameter 5740.839240
  1 settings made for diameter
set   atom 376 diameter 6445.940075
  1 settings made for diameter
set   atom 377 diameter 5530.869753
  1 settings made for diameter
set   atom 378 diameter 4310.181920
  1 settings made for diameter
set   atom 379 diameter 7134.641330
  1 settings made for diameter
set   atom 380 diameter 5978.904093
  1 settings made for diameter
set   atom 381 diameter 3629.621342
  1 settings made for diameter
set   atom 382 diameter 4187.559463
  1 settings made for diameter
set   atom 383 diameter 4997.273693
  1 settings made for diameter
set   atom 384 diameter 4301.057876
  1 settings made for diameter
set   atom 385 diameter 4877.668886
  1 settings made for diameter
set   atom 386 diameter 4290.143504
  1 settings made for diameter
set   atom 387 diameter 6562.176276
  1 settings made for diameter
set   atom 388 diameter 4156.382054
  1 settings made for diameter
set   atom 389 diameter 5316.753751
  1 settings made for diameter
set   atom 390 diameter 4541.210264
  1 settings made for diameter
set   atom 391 diameter 4164.675762
  1 settings made for diameter
set   atom 392 diameter 5669.651999
  1 settings made for diameter
set   atom 393 diameter 5934.219473
  1 settings made for diameter
set   atom 394 diameter 5624.490883
  1 settings made for diameter
set   atom 395 diameter 5762.589975
  1 settings made for diameter
set   atom 396 diameter 7092.873726
  1 settings made for diameter
set   atom 397 diameter 4666.807034
  1 settings made for diameter
set   atom 398 diameter 3703.098090
  1 settings made for diameter
set   atom 399 diameter 3954.908466
  1 settings made for diameter
set   atom 400 diameter 6471.548928
  1 settings made for diameter
set   atom 401 diameter 2965.011713
  1 settings made for diameter
set   atom 402 diameter 6643.846226
  1 settings made for diameter
set   atom 403 diameter 3637.606717
  1 settings made for diameter
set   atom 404 diameter 6222.420711
  1 settings made for diameter
set   atom 405 diameter 5654.307993
  1 settings made for diameter
set   atom 406 diameter 3745.843076
  1 settings made for diameter
set   atom 407 diameter 5690.261093
  1 settings made for diameter
set   atom 408 diameter 4156.197848
  1 settings made for diameter
set   atom 409 diameter 4497.593940
  1 settings made for diameter
set   atom 410 diameter 5965.783954
  1 settings made for diameter
set   atom 411 diameter 4374.348965
  1 settings made for diameter
set   atom 412 diameter 4810.118801
  1 settings made for diameter
set   atom 413 diameter 5643.576383
  1 settings made for diameter
set   atom 414 diameter 5215.047539
  1 settings made for diameter
set   atom 415 diameter 4292.064450
  1 settings made for diameter
set   atom 416 diameter 5577.043639
  1 settings made for diameter
set   atom 417 diameter 5006.577690
  1 settings made for diameter
set   atom 418 diameter 4602.855184
  1 settings made for diameter
set   atom 419 diameter 3688.801108
  1 settings made for diameter
set   atom 420 diameter 4548.162000
  1 settings made for diameter
set   atom 421 diameter 3369.231505
  1 settings made for diameter
set   atom 422 diameter 5449.182411
  1 settings made for diameter
set   atom 423 diameter 5492.263236
  1 settings made for diameter
set   atom 424 diameter 5244.775604
  1 settings made for diameter
set   atom 425 diameter 5762.844581
  1 settings made for diameter
set   atom 426 diameter 3937.736081
  1 settings made for diameter
set   atom 427 diameter 4749.804485
  1 settings made for diameter
set   atom 428 diameter 6084.863995
  1 settings made for diameter
set   atom 429 diameter 5478.920896
  1 settings made for diameter
set   atom 430 diameter 4778.335673
  1 settings made for diameter
set   atom 431 diameter 5551.355869
  1 settings made for diameter
set   atom 432 diameter 6894.712006
  1 settings made for diameter
set   atom 433 diameter 4414.542129
  1 settings made for diameter
set   atom 434 diameter 3091.301635
  1 settings made for diameter
set   atom 435 diameter 5789.981997
  1 settings made for diameter
set   atom 436 diameter 6138.465422
  1 settings made for diameter
set   atom 437 diameter 7054.706000
  1 settings made for diameter
set   atom 438 diameter 5489.429277
  1 settings made for diameter
set   atom 439 diameter 3641.638888
  1 settings made for diameter
set   atom 440 diameter 5747.749177
  1 settings made for diameter
set   atom 441 diameter 4277.888627
  1 settings made for diameter
set   atom 442 diameter 5054.250674
  1 settings made for diameter
set   atom 443 diameter 4796.325464
  1 settings made for diameter
set   atom 444 diameter 4195.435952
  1 settings made for diameter
set   atom 445 diameter 5539.324297
  1 settings made for diameter
set   atom 446 diameter 5360.193029
  1 settings made for diameter
set   atom 447 diameter 6496.846796
  1 settings made for diameter
set   atom 448 diameter 5600.928951
  1 settings made for diameter
set   atom 449 diameter 4874.392876
  1 settings made for diameter
set   atom 450 diameter 5541.588608
  1 settings made for diameter
set   atom 451 diameter 4124.711897
  1 settings made for diameter
set   atom 452 diameter 5728.853698
  1 settings made for diameter
set   atom 453 diameter 4827.227551
  1 settings made for diameter
set   atom 454 diameter 4911.472003
  1 settings made for diameter
set   atom 455 diameter 5803.393500
  1 settings made for diameter
set   atom 456 diameter 5863.586083
  1 settings made for diameter
set   atom 457 diameter 4381.967299
  1 settings made for diameter
set   atom 458 diameter 6257.188499
  1 settings made for diameter
set   atom 459 diameter 3255.821576
  1 settings made for diameter
set   atom 460 diameter 5242.726651
  1 settings made for diameter
set   atom 461 diameter 2812.983494
  1 settings made for diameter
set   atom 462 diameter 4065.690133
  1 settings made for diameter
set   atom 463 diameter 5603.150018
  1 settings made for diameter
set   atom 464 diameter 4695.449878
  1 settings made for diameter
set   atom 465 diameter 6052.699867
  1 settings made for diameter
set   atom 466 diameter 3798.618678
  1 settings made for diameter
set   atom 467 diameter 3921.176826
  1 settings made for diameter
set   atom 468 diameter 3666.568588
  1 settings made for diameter
set   atom 469 diameter 5308.104401
  1 settings made for diameter
set   atom 470 diameter 4907.887953
  1 settings made for diameter
set   atom 471 diameter 4937.018671
  1 settings made for diameter
set   atom 472 diameter 5655.206044
  1 settings made for diameter
set   atom 473 diameter 4645.408265
  1 settings made for diameter
set   atom 474 diameter 4786.595883
  1 settings made for diameter
set   atom 475 diameter 4433.594607
  1 settings made for diameter
set   atom 476 diameter 4320.283573
  1 settings made for diameter
set   atom 477 diameter 5542.138888
  1 settings made for diameter
set   atom 478 diameter 4218.058487
  1 settings made for diameter
set   atom 479 diameter 5480.130438
  1 settings made for diameter
set   atom 480 diameter 6308.714705
  1 settings made for diameter
set   atom 481 diameter 4716.185451
  1 settings made for diameter
set   atom 482 diameter 5514.762907
  1 settings made for diameter
set   atom 483 diameter 3456.984641
  1 settings made for diameter
set   atom 484 diameter 3498.202240
  1 settings made for diameter
set   atom 485 diameter 5105.155608
  1 settings made for diameter
set   atom 486 diameter 3066.133626
  1 settings made for diameter
set   atom 487 diameter 4302.501544
  1 settings made for diameter
set   atom 488 diameter 6006.160937
  1 settings made for diameter
set   atom 489 diameter 6009.875415
  1 settings made for diameter
set   atom 490 diameter 7055.531244
  1 settings made for diameter
set   atom 491 diameter 5013.670650
  1 settings made for diameter
set   atom 492 diameter 5826.036220
  1 settings made for diameter
set   atom 493 diameter 5339.781343
  1 settings made for diameter
set   atom 494 diameter 4143.781440
  1 settings made for diameter
set   atom 495 diameter 4970.880873
  1 settings made for diameter
set   atom 496 diameter 4763.661964
  1 settings made for diameter
set   atom 497 diameter 4636.504112
  1 settings made for diameter
set   atom 498 diameter 4940.415824
  1 settings made for diameter
set   atom 499 diameter 5923.397393
  1 settings made for diameter
set   atom 500 diameter 5085.707154
  1 settings made for diameter
set   atom 501 diameter 5499.385371
  1 settings made for diameter
set   atom 502 diameter 5644.824805
  1 settings made for diameter
set   atom 503 diameter 5501.925568
  1 settings made for diameter
set   atom 504 diameter 5463.382726
  1 settings made for diameter
set   atom 505 diameter 5945.206096
  1 settings made for diameter
set   atom 506 diameter 4938.736335
  1 settings made for diameter
set   atom 507 diameter 5696.884014
  1 settings made for diameter
set   atom 508 diameter 5607.141292
  1 settings made for diameter
set   atom 509 diameter 3923.032683
  1 settings made for diameter
set   atom 510 diameter 5975.628230
  1 settings made for diameter
set   atom 511 diameter 5252.340884
  1 settings made for diameter
set   atom 512 diameter 6396.740683
  1 settings made for diameter
set   atom 513 diameter 4138.455696
  1 settings made for diameter
set   atom 514 diameter 2775.042061
  1 settings made for diameter
set   atom 515 diameter 3821.722456
  1 settings made for diameter
set   atom 516 diameter 4986.765400
  1 settings made for diameter
set   atom 517 diameter 6318.175161
  1 settings made for diameter
set   atom 518 diameter 5586.806834
  1 settings made for diameter
set   atom 519 diameter 3948.172877
  1 settings made for diameter
set   atom 520 diameter 4621.750230
  1 settings made for diameter
set   atom 521 diameter 4551.239829
  1 settings made for diameter
set   atom 522 diameter 5358.586214
  1 settings made for diameter
set   atom 523 diameter 4220.875215
  1 settings made for diameter
set   atom 524 diameter 4515.708321
  1 settings made for diameter
set   atom 525 diameter 6519.714773
  1 settings made for diameter
set   atom 526 diameter 6640.132516
  1 settings made for diameter
set   atom 527 diameter 5082.597945
  1 settings made for diameter
set   atom 528 diameter 5810.835796
  1 settings made for diameter
set   atom 529 diameter 4230.539262
  1 settings made for diameter
set   atom 530 diameter 5094.437082
  1 settings made for diameter
set   atom 531 diameter 3748.241289
  1 settings made for diameter
set   atom 532 diameter 4655.491950
  1 settings made for diameter
set   atom 533 diameter 4467.937350
  1 settings made for diameter
set   atom 534 diameter 4850.805372
  1 settings made for diameter
set   atom 535 diameter 6038.138105
  1 settings made for diameter
set   atom 536 diameter 2540.309093
  1 settings made for diameter
set   atom 537 diameter 6029.657838
  1 settings made for diameter
set   atom 538 diameter 5527.540296
  1 settings made for diameter
set   atom 539 diameter 5573.697417
  1 settings made for diameter
set   atom 540 diameter 5697.402195
  1 settings made for diameter
set   atom 541 diameter 4727.619945
  1 settings made for diameter
set   atom 542 diameter 4270.951683
  1 settings made for diameter
set   atom 543 diameter 4055.800104
  1 settings made for diameter
set   atom 544 diameter 7325.813406
  1 settings made for diameter
set   atom 545 diameter 5280.174289
  1 settings made for diameter
set   atom 546 diameter 6425.255660
  1 settings made for diameter
set   atom 547 diameter 5143.580581
  1 settings made for diameter
set   atom 548 diameter 4794.960903
  1 settings made for diameter
set   atom 549 diameter 6186.188005
  1 settings made for diameter
set   atom 550 diameter 4839.344338
  1 settings made for diameter
set   atom 551 diameter 5083.081780
  1 settings made for diameter
set   atom 552 diameter 6834.491944
  1 settings made for diameter
set   atom 553 diameter 6337.558038
  1 settings made for diameter
set   atom 554 diameter 5525.387394
  1 settings made for diameter
set   atom 555 diameter 3998.504716
  1 settings made for diameter
set   atom 556 diameter 5938.343096
  1 settings made for diameter
set   atom 557 diameter 4024.302865
  1 settings made for diameter
set   atom 558 diameter 6394.376378
  1 settings made for diameter
set   atom 559 diameter 5555.276457
  1 settings made for diameter
set   atom 560 diameter 5169.355745
  1 settings made for diameter
set   atom 561 diameter 4737.139255
  1 settings made for diameter
set   atom 562 diameter 4686.654492
  1 settings made for diameter
set   atom 563 diameter 5834.736045
  1 settings made for diameter
set   atom 564 diameter 5556.962078
  1 settings made for diameter
set   atom 565 diameter 5788.226291
  1 settings made for diameter
set   atom 566 diameter 5581.748417
  1 settings made for diameter
set   atom 567 diameter 6392.013139
  1 settings made for diameter
set   atom 568 diameter 3599.445997
  1 settings made for diameter
set   atom 569 diameter 6730.187584
  1 settings made for diameter
set   atom 570 diameter 4907.059765
  1 settings made for diameter
set   atom 571 diameter 3735.436154
  1 settings made for diameter
set   atom 572 diameter 4073.928683
  1 settings made for diameter
set   atom 573 diameter 6043.302550
  1 settings made for diameter
set   atom 574 diameter 5952.751195
  1 settings made for diameter
set   atom 575 diameter 6332.358093
  1 settings made for diameter
set   atom 576 diameter 6122.547082
  1 settings made for diameter
set   atom 577 diameter 2739.936737
  1 settings made for diameter
set   atom 578 diameter 4931.528159
  1 settings made for diameter
set   atom 579 diameter 4223.327752
  1 settings made for diameter
set   atom 580 diameter 5911.667295
  1 settings made for diameter
set   atom 581 diameter 3323.276801
  1 settings made for diameter
set   atom 582 diameter 6695.818895
  1 settings made for diameter
set   atom 583 diameter 6405.764990
  1 settings made for diameter
set   atom 584 diameter 5794.239292
  1 settings made for diameter
set   atom 585 diameter 4678.384496
  1 settings made for diameter
set   atom 586 diameter 5448.607610
  1 settings made for diameter
set   atom 587 diameter 5050.648500
  1 settings made for diameter
set   atom 588 diameter 4827.329867
  1 settings made for diameter
set   atom 589 diameter 5206.484622
  1 settings made for diameter
set   atom 590 diameter 5513.574821
  1 settings made for diameter
set   atom 591 diameter 5729.232178
  1 settings made for diameter
set   atom 592 diameter 5225.995920
  1 settings made for diameter
set   atom 593 diameter 3365.815931
  1 settings made for diameter
set   atom 594 diameter 4538.947396
  1 settings made for diameter
set   atom 595 diameter 5965.153933
  1 settings made for diameter
set   atom 596 diameter 4780.198312
  1 settings made for diameter
set   atom 597 diameter 6090.906439
  1 settings made for diameter
set   atom 598 diameter 4946.419335
  1 settings made for diameter
set   atom 599 diameter 5019.928857
  1 settings made for diameter
set   atom 600 diameter 5081.781795
  1 settings made for diameter
set   atom 601 diameter 6116.334568
  1 settings made for diameter
set   atom 602 diameter 6263.439256
  1 settings made for diameter
set   atom 603 diameter 6343.144360
  1 settings made for diameter
set   atom 604 diameter 5774.973461
  1 settings made for diameter
set   atom 605 diameter 5462.210778
  1 settings made for diameter
set   atom 606 diameter 5750.714919
  1 settings made for diameter
set   atom 607 diameter 5470.768393
  1 settings made for diameter
set   atom 608 diameter 4831.467121
  1 settings made for diameter
set   atom 609 diameter 4643.850327
  1 settings made for diameter
set   atom 610 diameter 4004.040721
  1 settings made for diameter
set   atom 611 diameter 4289.169056
  1 settings made for diameter
set   atom 612 diameter 5564.015561
  1 settings made for diameter
set   atom 613 diameter 4274.609026
  1 settings made for diameter
set   atom 614 diameter 2965.788776
  1 settings made for diameter
set   atom 615 diameter 6898.192227
  1 settings made for diameter
set   atom 616 diameter 6035.601725
  1 settings made for diameter
set   atom 617 diameter 5137.338461
  1 settings made for diameter
set   atom 618 diameter 4481.533732
  1 settings made for diameter
set   atom 619 diameter 5330.450516
  1 settings made for diameter
set   atom 620 diameter 4581.131988
  1 settings made for diameter
set   atom 621 diameter 4219.066944
  1 settings made for diameter
set   atom 622 diameter 3610.399894
  1 settings made for diameter
set   atom 623 diameter 6387.009660
  1 settings made for diameter
set   atom 624 diameter 5367.516126
  1 settings made for diameter
set   atom 625 diameter 4322.154919
  1 settings made for diameter
set   atom 626 diameter 3092.352606
  1 settings made for diameter
set   atom 627 diameter 5210.030857
  1 settings made for diameter
set   atom 628 diameter 3629.964135
  1 settings made for diameter
set   atom 629 diameter 5478.473201
  1 settings made for diameter
set   atom 630 diameter 5351.389626
  1 settings made for diameter
set   atom 631 diameter 6142.373993
  1 settings made for diameter
set   atom 632 diameter 6061.472557
  1 settings made for diameter
set   atom 633 diameter 4933.211060
  1 settings made for diameter
set   atom 634 diameter 5375.472859
  1 settings made for diameter
set   atom 635 diameter 4723.119380
  1 settings made for diameter
set   atom 636 diameter 5120.490132
  1 settings made for diameter
set   atom 637 diameter 5201.358374
  1 settings made for diameter
set   atom 638 diameter 5262.607776
  1 settings made for diameter
set   atom 639 diameter 6302.801982
  1 settings made for diameter
set   atom 640 diameter 5409.612618
  1 settings made for diameter
set   atom 641 diameter 6038.198844
  1 settings made for diameter
set   atom 642 diameter 4005.440031
  1 settings made for diameter
set   atom 643 diameter 5206.783276
  1 settings made for diameter
set   atom 644 diameter 5555.883947
  1 settings made for diameter
set   atom 645 diameter 6732.430937
  1 settings made for diameter
set   atom 646 diameter 5028.955502
  1 settings made for diameter
set   atom 647 diameter 3866.158503
  1 settings made for diameter
set   atom 648 diameter 6362.116925
  1 settings made for diameter
set   atom 649 diameter 4484.760011
  1 settings made for diameter
set   atom 650 diameter 4840.005689
  1 settings made for diameter
set   atom 651 diameter 2980.992980
  1 settings made for diameter
set   atom 652 diameter 5611.198320
  1 settings made for diameter
set   atom 653 diameter 7932.997527
  1 settings made for diameter
set   atom 654 diameter 4455.115272
  1 settings made for diameter
set   atom 655 diameter 5173.872092
  1 settings made for diameter
set   atom 656 diameter 4894.162957
  1 settings made for diameter
set   atom 657 diameter 5380.126263
  1 settings made for diameter
set   atom 658 diameter 5711.865716
  1 settings made for diameter
set   atom 659 diameter 5118.274906
  1 settings made for diameter
set   atom 660 diameter 4941.223159
  1 settings made for diameter
set   atom 661 diameter 5932.230926
  1 settings made for diameter
set   atom 662 diameter 5791.606906
  1 settings made for diameter
set   atom 663 diameter 3369.131620
  1 settings made for diameter
set   atom 664 diameter 4479.662811
  1 settings made for diameter
set   atom 665 diameter 5367.198519
  1 settings made for diameter
set   atom 666 diameter 3043.850520
  1 settings made for diameter
set   atom 667 diameter 5461.130806
  1 settings made for diameter
set   atom 668 diameter 4726.764299
  1 settings made for diameter
set   atom 669 diameter 5839.128355
  1 settings made for diameter
set   atom 670 diameter 5495.676181
  1 settings made for diameter
set   atom 671 diameter 5489.341402
  1 settings made for diameter
set   atom 672 diameter 5163.895817
  1 settings made for diameter
set   atom 673 diameter 5708.141285
  1 settings made for diameter
set   atom 674 diameter 5537.723558
  1 settings made for diameter
set   atom 675 diameter 3920.420309
  1 settings made for diameter
set   atom 676 diameter 8332.235373
  1 settings made for diameter
set   atom 677 diameter 6155.309575
  1 settings made for diameter
set   atom 678 diameter 4553.557343
  1 settings made for diameter
set   atom 679 diameter 5329.642468
  1 settings made for diameter
set   atom 680 diameter 6049.548532
  1 settings made for diameter
set   atom 681 diameter 5709.616775
  1 settings made for diameter
set   atom 682 diameter 5835.781539
  1 settings made for diameter
set   atom 683 diameter 4127.739465
  1 settings made for diameter
set   atom 684 diameter 2476.043034
  1 settings made for diameter
set   atom 685 diameter 3942.066175
  1 settings made for diameter
set   atom 686 diameter 7443.720037
  1 settings made for diameter
set   atom 687 diameter 3937.081282
  1 settings made for diameter
set   atom 688 diameter 5260.339330
  1 settings made for diameter
set   atom 689 diameter 4709.350564
  1 settings made for diameter
set   atom 690 diameter 6586.450696
  1 settings made for diameter
set   atom 691 diameter 4373.301282
  1 settings made for diameter
set   atom 692 diameter 4750.780941
  1 settings made for diameter
set   atom 693 diameter 4163.502535
  1 settings made for diameter
set   atom 694 diameter 5724.638371
  1 settings made for diameter
set   atom 695 diameter 5078.855260
  1 settings made for diameter
set   atom 696 diameter 5100.100156
  1 settings made for diameter
set   atom 697 diameter 3561.287502
  1 settings made for diameter
set   atom 698 diameter 4963.344743
  1 settings made for diameter
set   atom 699 diameter 3295.830704
  1 settings made for diameter
set   atom 700 diameter 4459.276828
  1 settings made for diameter
set   atom 701 diameter 4260.916263
  1 settings made for diameter
set   atom 702 diameter 6250.231619
  1 settings made for diameter
set   atom 703 diameter 5960.561916
  1 settings made for diameter
set   atom 704 diameter 4118.838654
  1 settings made for diameter
set   atom 705 diameter 4020.947317
  1 settings made for diameter
set   atom 706 diameter 6313.061183
  1 settings made for diameter
set   atom 707 diameter 3474.385776
  1 settings made for diameter
set   atom 708 diameter 6470.299253
  1 settings made for diameter
set   atom 709 diameter 4200.033492
  1 settings made for diameter
set   atom 710 diameter 6062.054550
  1 settings made for diameter
set   atom 711 diameter 5082.738149
  1 settings made for diameter
set   atom 712 diameter 6915.831876
  1 settings made for diameter
set   atom 713 diameter 6072.450158
  1 settings made for diameter
set   atom 714 diameter 4410.552539
  1 settings made for diameter
set   atom 715 diameter 7099.428019
  1 settings made for diameter
set   atom 716 diameter 5526.139784
  1 settings made for diameter
set   atom 717 diameter 5198.293616
  1 settings made for diameter
set   atom 718 diameter 5422.997224
  1 settings made for diameter
set   atom 719 diameter 5077.325789
  1 settings made for diameter
set   atom 720 diameter 3856.590877
  1 settings made for diameter
set   atom 721 diameter 4746.521144
  1 settings made for diameter
set   atom 722 diameter 5413.787425
  1 settings made for diameter
set   atom 723 diameter 6338.892944
  1 settings made for diameter
set   atom 724 diameter 6202.547144
  1 settings made for diameter
set   atom 725 diameter 5025.386723
  1 settings made for diameter
set   atom 726 diameter 4714.537768
  1 settings made for diameter
set   atom 727 diameter 5893.502290
  1 settings made for diameter
set   atom 728 diameter 3320.108051
  1 settings made for diameter
set   atom 729 diameter 5030.913947
  1 settings made for diameter
set   atom 730 diameter 6022.165250
  1 settings made for diameter
set   atom 731 diameter 5119.372495
  1 settings made for diameter
set   atom 732 diameter 3982.227707
  1 settings made for diameter
set   atom 733 diameter 6163.382977
  1 settings made for diameter
set   atom 734 diameter 4566.184710
  1 settings made for diameter
set   atom 735 diameter 3459.899595
  1 settings made for diameter
set   atom 736 diameter 4964.093919
  1 settings made for diameter
set   atom 737 diameter 4809.418019
  1 settings made for diameter
set   atom 738 diameter 5024.897001
  1 settings made for diameter
set   atom 739 diameter 4306.533809
  1 settings made for diameter
set   atom 740 diameter 5659.172178
  1 settings made for diameter
set   atom 741 diameter 5094.810873
  1 settings made for diameter
set   atom 742 diameter 5972.063354
  1 settings made for diameter
set   atom 743 diameter 5713.216882
  1 settings made for diameter
set   atom 744 diameter 5861.710307
  1 settings made for diameter
set   atom 745 diameter 4359.039686
  1 settings made for diameter
set   atom 746 diameter 3183.984945
  1 settings made for diameter
set   atom 747 diameter 3794.629897
  1 settings made for diameter
set   atom 748 diameter 4524.284066
  1 settings made for diameter
set   atom 749 diameter 3778.096110
  1 settings made for diameter
set   atom 750 diameter 5152.355901
  1 settings made for diameter
set   atom 751 diameter 4511.820788
  1 settings made for diameter
set   atom 752 diameter 5826.642306
  1 settings made for diameter
set   atom 753 diameter 4220.650598
  1 settings made for diameter
set   atom 754 diameter 6820.415086
  1 settings made for diameter
set   atom 755 diameter 4816.195416
  1 settings made for diameter
set   atom 756 diameter 6321.414305
  1 settings made for diameter
set   atom 757 diameter 4896.519962
  1 settings made for diameter
set   atom 758 diameter 4751.022650
  1 settings made for diameter
set   atom 759 diameter 3372.786220
  1 settings made for diameter
set   atom 760 diameter 5184.564952
  1 settings made for diameter
set   atom 761 diameter 5282.642981
  1 settings made for diameter
set   atom 762 diameter 4715.720156
  1 settings made for diameter
set   atom 763 diameter 4669.662874
  1 settings made for diameter
set   atom 764 diameter 4808.517969
  1 settings made for diameter
set   atom 765 diameter 5046.332917
  1 settings made for diameter
set   atom 766 diameter 5607.236913
  1 settings made for diameter
set   atom 767 diameter 5053.918831
  1 settings made for diameter
set   atom 768 diameter 6352.264684
  1 settings made for diameter
set   atom 769 diameter 3847.376230
  1 settings made for diameter
set   atom 770 diameter 3818.587749
  1 settings made for diameter
set   atom 771 diameter 4863.721408
  1 settings made for diameter
set   atom 772 diameter 5002.475228
  1 settings made for diameter
set   atom 773 diameter 6623.846638
  1 settings made for diameter
set   atom 774 diameter 4262.823039
  1 settings made for diameter
set   atom 775 diameter 5102.358565
  1 settings made for diameter
set   atom 776 diameter 5065.107377
  1 settings made for diameter
set   atom 777 diameter 4342.902286
  1 settings made for diameter
set   atom 778 diameter 5069.837283
  1 settings made for diameter
set   atom 779 diameter 4051.440409
  1 settings made for diameter
set   atom 780 diameter 4241.890878
  1 settings made for diameter
set   atom 781 diameter 5054.740049
  1 settings made for diameter
set   atom 782 diameter 5941.724644
  1 settings made for diameter
set   atom 783 diameter 5991.086012
  1 settings made for diameter
set   atom 784 diameter 5133.969917
  1 settings made for diameter
set   atom 785 diameter 6600.944464
  1 settings made for diameter
set   atom 786 diameter 4788.581727
  1 settings made for diameter
set   atom 787 diameter 5371.015615
  1 settings made for diameter
set   atom 788 diameter 6155.104834
  1 settings made for diameter
set   atom 789 diameter 5876.709237
  1 settings made for diameter
set   atom 790 diameter 6262.720466
  1 settings made for diameter
set   atom 791 diameter 5029.777192
  1 settings made for diameter
set   atom 792 diameter 6515.841148
  1 settings made for diameter
set   atom 793 diameter 2990.774578
  1 settings made for diameter
set   atom 794 diameter 4888.602605
  1 settings made for diameter
set   atom 795 diameter 4739.139719
  1 settings made for diameter
set   atom 796 diameter 4918.769261
  1 settings made for diameter
set   atom 797 diameter 4371.992974
  1 settings made for diameter
set   atom 798 diameter 4219.776946
  1 settings made for diameter
set   atom 799 diameter 3885.864895
  1 settings made for diameter
set   atom 800 diameter 5235.292907
  1 settings made for diameter
set   atom 801 diameter 4479.940093
  1 settings made for diameter
set   atom 802 diameter 5453.296997
  1 settings made for diameter
set   atom 803 diameter 6413.015984
  1 settings made for diameter
set   atom 804 diameter 4863.272708
  1 settings made for diameter
set   atom 805 diameter 5862.864847
  1 settings made for diameter
set   atom 806 diameter 6049.785320
  1 settings made for diameter
set   atom 807 diameter 3493.702820
  1 settings made for diameter
set   atom 808 diameter 5374.979605
  1 settings made for diameter
set   atom 809 diameter 4719.701489
  1 settings made for diameter
set   atom 810 diameter 6939.116261
  1 settings made for diameter
set   atom 811 diameter 4735.329556
  1 settings made for diameter
set   atom 812 diameter 5411.850081
  1 settings made for diameter
set   atom 813 diameter 5092.372445
  1 settings made for diameter
set   atom 814 diameter 6444.765773
  1 settings made for diameter
set   atom 815 diameter 6314.071501
  1 settings made for diameter
set   atom 816 diameter 4287.626885
  1 settings made for diameter
set   atom 817 diameter 5315.399721
  1 settings made for diameter
set   atom 818 diameter 6449.449321
  1 settings made for diameter
set   atom 819 diameter 3975.313691
  1 settings made for diameter
set   atom 820 diameter 3689.450006
  1 settings made for diameter
set   atom 821 diameter 3824.162884
  1 settings made for diameter
set   atom 822 diameter 5572.949987
  1 settings made for diameter
set   atom 823 diameter 3868.178197
  1 settings made for diameter
set   atom 824 diameter 6723.164310
  1 settings made for diameter
set   atom 825 diameter 5584.055539
  1 settings made for diameter
set   atom 826 diameter 7111.164122
  1 settings made for diameter
set   atom 827 diameter 3817.128314
  1 settings made for diameter
set   atom 828 diameter 4547.191935
  1 settings made for diameter
set   atom 829 diameter 5507.238799
  1 settings made for diameter
set   atom 830 diameter 6851.540280
  1 settings made for diameter
set   atom 831 diameter 4583.306250
  1 settings made for diameter
set   atom 832 diameter 4503.888887
  1 settings made for diameter
set   atom 833 diameter 5806.075524
  1 settings made for diameter
set   atom 834 diameter 4997.273958
  1 settings made for diameter
set   atom 835 diameter 4853.386054
  1 settings made for diameter
set   atom 836 diameter 4093.079679
  1 settings made for diameter
set   atom 837 diameter 4449.224254
  1 settings made for diameter
set   atom 838 diameter 5543.270269
  1 settings made for diameter
set   atom 839 diameter 4717.050122
  1 settings made for diameter
set   atom 840 diameter 5287.200385
  1 settings made for diameter
set   atom 841 diameter 6135.569219
  1 settings made for diameter
set   atom 842 diameter 5998.375877
  1 settings made for diameter
set   atom 843 diameter 4312.674735
  1 settings made for diameter
set   atom 844 diameter 5423.802692
  1 settings made for diameter
set   atom 845 diameter 4270.244591
  1 settings made for diameter
set   atom 846 diameter 4989.145843
  1 settings made for diameter
set   atom 847 diameter 5017.777180
  1 settings made for diameter
set   atom 848 diameter 5015.688350
  1 settings made for diameter
set   atom 849 diameter 6175.814664
  1 settings made for diameter
set   atom 850 diameter 4727.237084
  1 settings made for diameter
set   atom 851 diameter 6677.091936
  1 settings made for diameter
set   atom 852 diameter 4305.573324
  1 settings made for diameter
set   atom 853 diameter 6959.812858
  1 settings made for diameter
set   atom 854 diameter 4829.350548
  1 settings made for diameter
set   atom 855 diameter 5201.667097
  1 settings made for diameter
set   atom 856 diameter 4424.702603
  1 settings made for diameter
set   atom 857 diameter 4089.758476
  1 settings made for diameter
set   atom 858 diameter 5526.553039
  1 settings made for diameter
set   atom 859 diameter 3192.410067
  1 settings made for diameter
set   atom 860 diameter 5215.152696
  1 settings made for diameter
set   atom 861 diameter 4987.867833
  1 settings made for diameter
set   atom 862 diameter 3315.572644
  1 settings made for diameter
set   atom 863 diameter 5804.712259
  1 settings made for diameter
set   atom 864 diameter 4764.957513
  1 settings made for diameter
set   atom 865 diameter 5727.303121
  1 settings made for diameter
set   atom 866 diameter 4242.518995
  1 settings made for diameter
set   atom 867 diameter 5356.506303
  1 settings made for diameter
set   atom 868 diameter 4277.882237
  1 settings made for diameter
set   atom 869 diameter 3057.030456
  1 settings made for diameter
set   atom 870 diameter 4087.147607
  1 settings made for diameter
set   atom 871 diameter 4143.084482
  1 settings made for diameter
set   atom 872 diameter 7500.971641
  1 settings made for diameter
set   atom 873 diameter 3948.234169
  1 settings made for diameter
set   atom 874 diameter 5228.184721
  1 settings made for diameter
set   atom 875 diameter 5787.310541
  1 settings made for diameter
set   atom 876 diameter 3927.987214
  1 settings made for diameter
set   atom 877 diameter 5868.819159
  1 settings made for diameter
set   atom 878 diameter 4050.900126
  1 settings made for diameter
set   atom 879 diameter 4978.307212
  1 settings made for diameter
set   atom 880 diameter 4099.769925
  1 settings made for diameter
set   atom 881 diameter 4981.897615
  1 settings made for diameter
set   atom 882 diameter 4537.322472
  1 settings made for diameter
set   atom 883 diameter 4656.783751
  1 settings made for diameter
set   atom 884 diameter 5126.907113
  1 settings made for diameter
set   atom 885 diameter 3600.425804
  1 settings made for diameter
set   atom 886 diameter 5131.238510
  1 settings made for diameter
set   atom 887 diameter 5196.672542
  1 settings made for diameter
set   atom 888 diameter 6496.666893
  1 settings made for diameter
set   atom 889 diameter 5474.797324
  1 settings made for diameter
set   atom 890 diameter 6607.874831
  1 settings made for diameter
set   atom 891 diameter 3664.112559
  1 settings made for diameter
set   atom 892 diameter 5117.467075
  1 settings made for diameter
set   atom 893 diameter 4925.632718
  1 settings made for diameter
set   atom 894 diameter 5882.647291
  1 settings made for diameter
set   atom 895 diameter 4434.190119
  1 settings made for diameter
set   atom 896 diameter 5187.702320
  1 settings made for diameter
set   atom 897 diameter 4623.612933
  1 settings made for diameter
set   atom 898 diameter 4188.302291
  1 settings made for diameter
set   atom 899 diameter 6261.752027
  1 settings made for diameter
set   atom 900 diameter 5177.637710
  1 settings made for diameter
set   atom 901 diameter 4255.308889
  1 settings made for diameter
set   atom 902 diameter 4094.730503
  1 settings made for diameter
set   atom 903 diameter 4407.903864
  1 settings made for diameter
set   atom 904 diameter 3492.193217
  1 settings made for diameter
set   atom 905 diameter 4584.496696
  1 settings made for diameter
set   atom 906 diameter 5122.633384
  1 settings made for diameter
set   atom 907 diameter 4703.075092
  1 settings made for diameter
set   atom 908 diameter 6345.134104
  1 settings made for diameter
set   atom 909 diameter 5274.194604
  1 settings made for diameter
set   atom 910 diameter 5516.948883
  1 settings made for diameter
set   atom 911 diameter 4406.395452
  1 settings made for diameter
set   atom 912 diameter 4413.853337
  1 settings made for diameter
set   atom 913 diameter 4844.570506
  1 settings made for diameter
set   atom 914 diameter 4027.464322
  1 settings made for diameter
set   atom 915 diameter 4470.983622
  1 settings made for diameter
set   atom 916 diameter 5776.369161
  1 settings made for diameter
set   atom 917 diameter 4516.280266
  1 settings made for diameter
set   atom 918 diameter 3627.818183
  1 settings made for diameter
set   atom 919 diameter 4044.452313
  1 settings made for diameter
set   atom 920 diameter 5125.782183
  1 settings made for diameter
set   atom 921 diameter 5344.427589
  1 settings made for diameter
set   atom 922 diameter 4373.469185
  1 settings made for diameter
set   atom 923 diameter 5045.383860
  1 settings made for diameter
set   atom 924 diameter 5350.876963
  1 settings made for diameter
set   atom 925 diameter 5372.606424
  1 settings made for diameter
set   atom 926 diameter 3686.209266
  1 settings made for diameter
set   atom 927 diameter 6480.173564
  1 settings made for diameter
set   atom 928 diameter 5023.147323
  1 settings made for diameter
set   atom 929 diameter 4377.069902
  1 settings made for diameter
set   atom 930 diameter 5101.586070
  1 settings made for diameter
set   atom 931 diameter 3813.216688
  1 settings made for diameter
set   atom 932 diameter 5570.300735
  1 settings made for diameter
set   atom 933 diameter 4336.418890
  1 settings made for diameter
set   atom 934 diameter 5243.291205
  1 settings made for diameter
set   atom 935 diameter 7589.941998
  1 settings made for diameter
set   atom 936 diameter 3130.649658
  1 settings made for diameter
set   atom 937 diameter 5628.241663
  1 settings made for diameter
set   atom 938 diameter 5856.113356
  1 settings made for diameter
set   atom 939 diameter 3327.490223
  1 settings made for diameter
set   atom 940 diameter 4109.883305
  1 settings made for diameter
set   atom 941 diameter 4234.940921
  1 settings made for diameter
set   atom 942 diameter 4562.293154
  1 settings made for diameter
set   atom 943 diameter 5013.129126
  1 settings made for diameter
set   atom 944 diameter 5080.656306
  1 settings made for diameter
set   atom 945 diameter 3417.327246
  1 settings made for diameter
set   atom 946 diameter 4926.418951
  1 settings made for diameter
set   atom 947 diameter 4164.129774
  1 settings made for diameter
set   atom 948 diameter 4642.341762
  1 settings made for diameter
set   atom 949 diameter 4520.101562
  1 settings made for diameter
set   atom 950 diameter 4947.519280
  1 settings made for diameter
set   atom 951 diameter 5874.891572
  1 settings made for diameter
set   atom 952 diameter 4293.025689
  1 settings made for diameter
set   atom 953 diameter 5813.395177
  1 settings made for diameter
set   atom 954 diameter 4389.211326
  1 settings made for diameter
set   atom 955 diameter 3791.791327
  1 settings made for diameter
set   atom 956 diameter 4925.442025
  1 settings made for diameter
set   atom 957 diameter 4754.051077
  1 settings made for diameter
set   atom 958 diameter 4951.470168
  1 settings made for diameter
set   atom 959 diameter 6084.932753
  1 settings made for diameter
set   atom 960 diameter 4307.275140
  1 settings made for diameter
set   atom 961 diameter 3697.964597
  1 settings made for diameter
set   atom 962 diameter 4739.415911
  1 settings made for diameter
set   atom 963 diameter 5538.929448
  1 settings made for diameter
set   atom 964 diameter 5020.115845
  1 settings made for diameter
set   atom 965 diameter 4745.451606
  1 settings made for diameter
set   atom 966 diameter 2631.901049
  1 settings made for diameter
set   atom 967 diameter 5281.276094
  1 settings made for diameter
set   atom 968 diameter 6255.183187
  1 settings made for diameter
set   atom 969 diameter 4668.706225
  1 settings made for diameter
set   atom 970 diameter 4758.213299
  1 settings made for diameter
set   atom 971 diameter 7228.460000
  1 settings made for diameter
set   atom 972 diameter 6362.137453
  1 settings made for diameter
set   atom 973 diameter 6719.875899
  1 settings made for diameter
set   atom 974 diameter 5978.821847
  1 settings made for diameter
set   atom 975 diameter 5266.502926
  1 settings made for diameter
set   atom 976 diameter 4523.881344
  1 settings made for diameter
set   atom 977 diameter 4066.382664
  1 settings made for diameter
set   atom 978 diameter 4948.982965
  1 settings made for diameter
set   atom 979 diameter 5227.516538
  1 settings made for diameter
set   atom 980 diameter 4414.480037
  1 settings made for diameter
set   atom 981 diameter 4092.239446
  1 settings made for diameter
set   atom 982 diameter 5163.016158
  1 settings made for diameter
set   atom 983 diameter 7144.242157
  1 settings made for diameter
set   atom 984 diameter 4906.816195
  1 settings made for diameter
set   atom 985 diameter 5687.828782
  1 settings made for diameter
set   atom 986 diameter 5004.232535
  1 settings made for diameter
set   atom 987 diameter 6442.687827
  1 settings made for diameter
set   atom 988 diameter 6320.707606
  1 settings made for diameter
set   atom 989 diameter 4648.038383
  1 settings made for diameter
set   atom 990 diameter 3464.829815
  1 settings made for diameter
set   atom 991 diameter 4721.317254
  1 settings made for diameter
set   atom 992 diameter 3163.783112
  1 settings made for diameter
set   atom 993 diameter 3293.559184
  1 settings made for diameter
set   atom 994 diameter 5274.137973
  1 settings made for diameter
set   atom 995 diameter 4903.818751
  1 settings made for diameter
set   atom 996 diameter 5746.277414
  1 settings made for diameter
set   atom 997 diameter 4082.469408
  1 settings made for diameter
set   atom 998 diameter 5511.604202
  1 settings made for diameter
set   atom 999 diameter 4338.081525
  1 settings made for diameter
set   atom 1000 diameter 4378.299186
  1 settings made for diameter
set   atom 1001 diameter 6134.987113
  1 settings made for diameter
set   atom 1002 diameter 4989.562889
  1 settings made for diameter
set   atom 1003 diameter 4718.535757
  1 settings made for diameter
set   atom 1004 diameter 4440.572499
  1 settings made for diameter
set   atom 1005 diameter 5548.288949
  1 settings made for diameter
set   atom 1006 diameter 6766.426087
  1 settings made for diameter
set   atom 1007 diameter 2315.635012
  1 settings made for diameter
set   atom 1008 diameter 4390.409890
  1 settings made for diameter
set   atom 1009 diameter 5226.562342
  1 settings made for diameter
set   atom 1010 diameter 5599.489663
  1 settings made for diameter
set   atom 1011 diameter 5313.215727
  1 settings made for diameter
set   atom 1012 diameter 3905.510198
  1 settings made for diameter
set   atom 1013 diameter 3999.944445
  1 settings made for diameter
set   atom 1014 diameter 4864.215720
  1 settings made for diameter
set   atom 1015 diameter 3901.797155
  1 settings made for diameter
set   atom 1016 diameter 5759.459923
  1 settings made for diameter
set   atom 1017 diameter 3921.084210
  1 settings made for diameter
set   atom 1018 diameter 4190.312402
  1 settings made for diameter
set   atom 1019 diameter 5678.958956
  1 settings made for diameter
set   atom 1020 diameter 5262.191582
  1 settings made for diameter
set   atom 1021 diameter 4244.895827
  1 settings made for diameter
set   atom 1022 diameter 6070.578711
  1 settings made for diameter
set   atom 1023 diameter 6034.409466
  1 settings made for diameter
set   atom 1024 diameter 5452.833981
  1 settings made for diameter
set   atom 1025 diameter 5130.914067
  1 settings made for diameter
set   atom 1026 diameter 5402.236016
  1 settings made for diameter
set   atom 1027 diameter 4519.223413
  1 settings made for diameter
set   atom 1028 diameter 6445.218008
  1 settings made for diameter
set   atom 1029 diameter 3844.900803
  1 settings made for diameter
set   atom 1030 diameter 3695.359410
  1 settings made for diameter
set   atom 1031 diameter 3963.864035
  1 settings made for diameter
set   atom 1032 diameter 3848.934876
  1 settings made for diameter
set   atom 1033 diameter 4306.112542
  1 settings made for diameter
set   atom 1034 diameter 5935.469690
  1 settings made for diameter
set   atom 1035 diameter 3402.319988
  1 settings made for diameter
set   atom 1036 diameter 5903.655879
  1 settings made for diameter
set   atom 1037 diameter 4528.490141
  1 settings made for diameter
set   atom 1038 diameter 5004.666067
  1 settings made for diameter
set   atom 1039 diameter 5365.885345
  1 settings made for diameter
set   atom 1040 diameter 5992.256067
  1 settings made for diameter
set   atom 1041 diameter 3960.797593
  1 settings made for diameter
set   atom 1042 diameter 5070.392454
  1 settings made for diameter
set   atom 1043 diameter 4980.849429
  1 settings made for diameter
set   atom 1044 diameter 5714.580214
  1 settings made for diameter
set   atom 1045 diameter 5110.452856
  1 settings made for diameter
set   atom 1046 diameter 5208.319131
  1 settings made for diameter
set   atom 1047 diameter 5248.765428
  1 settings made for diameter
set   atom 1048 diameter 4083.970362
  1 settings made for diameter
set   atom 1049 diameter 4607.022726
  1 settings made for diameter
set   atom 1050 diameter 5153.737582
  1 settings made for diameter
set   atom 1051 diameter 3895.513287
  1 settings made for diameter
set   atom 1052 diameter 4528.090738
  1 settings made for diameter
set   atom 1053 diameter 4165.814848
  1 settings made for diameter
set   atom 1054 diameter 6291.512820
  1 settings made for diameter
set   atom 1055 diameter 4128.984861
  1 settings made for diameter
set   atom 1056 diameter 5882.886033
  1 settings made for diameter
set   atom 1057 diameter 6246.220947
  1 settings made for diameter
set   atom 1058 diameter 4188.321966
  1 settings made for diameter
set   atom 1059 diameter 5246.608264
  1 settings made for diameter
set   atom 1060 diameter 4100.376452
  1 settings made for diameter
set   atom 1061 diameter 5344.769134
  1 settings made for diameter
set   atom 1062 diameter 4723.480398
  1 settings made for diameter
set   atom 1063 diameter 5097.867208
  1 settings made for diameter
set   atom 1064 diameter 4899.106677
  1 settings made for diameter
set   atom 1065 diameter 4278.067233
  1 settings made for diameter
set   atom 1066 diameter 7267.184193
  1 settings made for diameter
set   atom 1067 diameter 6256.018663
  1 settings made for diameter
set   atom 1068 diameter 5320.917007
  1 settings made for diameter
set   atom 1069 diameter 5269.177890
  1 settings made for diameter
set   atom 1070 diameter 4406.104457
  1 settings made for diameter
set   atom 1071 diameter 5034.589889
  1 settings made for diameter
set   atom 1072 diameter 4942.773188
  1 settings made for diameter
set   atom 1073 diameter 4263.325320
  1 settings made for diameter
set   atom 1074 diameter 5080.175031
  1 settings made for diameter
set   atom 1075 diameter 4454.627237
  1 settings made for diameter
set   atom 1076 diameter 5912.606548
[...]
   12900    60.042805     5000 5.4257456e+13       500000 
   13000    60.551084     5000 5.4112988e+13       500000 
   13100    61.054482     5000 5.3898372e+13       500000 
   13200    61.540565     5000 5.3797672e+13       500000 
   13300    62.021681     5000 5.3785714e+13       500000 
   13400    62.494064     5000 5.3756008e+13       500000 
   13500    62.993871     5000 5.3766087e+13       500000 
   13600    63.459198     5000 5.3303139e+13       500000 
   13700     63.93973     5000 5.3161816e+13       500000 
   13800    64.426345     5000 5.310754e+13       500000 
   13900    64.930921     5000 5.295574e+13       500000 
   14000    65.433288     5000 5.2860025e+13       500000 
   14100    65.907622     5000 5.2746321e+13       500000 
   14200     66.41456     5000 5.3098014e+13       500000 
   14300    66.918814     5000 5.2493704e+13       500000 
   14400    67.417626     5000 5.2311197e+13       500000 
   14500    67.925293     5000 5.2268252e+13       500000 
   14600    68.409405     5000 5.2028748e+13       500000 
   14700    68.913744     5000 5.1976337e+13       500000 
   14800    69.400282     5000 5.1745454e+13       500000 
   14900    69.879124     5000 5.1491012e+13       500000 
   15000    70.377694     5000 5.1385506e+13       500000 
   15100    70.881507     5000 5.1492927e+13       500000 
   15200    71.360583     5000 5.1276077e+13       500000 
   15300    71.882538     5000 5.122124e+13       500000 
   15400    72.395947     5000 5.1278352e+13       500000 
   15500    72.890025     5000  5.08561e+13       500000 
   15600    73.386159     5000 5.0802108e+13       500000 
   15700    73.874462     5000 5.0604708e+13       500000 
   15800    74.360836     5000 5.070003e+13       500000 
   15900    74.868963     5000 5.042858e+13       500000 
   16000    75.359845     5000 5.0229832e+13       500000 
   16100    75.857789     5000 5.0188497e+13       500000 
   16200    76.343847     5000 5.0123309e+13       500000 
   16300    76.843057     5000 4.9678242e+13       500000 
   16400    77.351555     5000 4.9614387e+13       500000 
   16500    77.884495     5000 4.9605062e+13       500000 
   16600    78.371352     5000 4.9477961e+13       500000 
   16700    78.863029     5000 4.9361667e+13       500000 
   16800    79.350002     5000 4.9144362e+13       500000 
   16900    79.834133     5000 4.8927371e+13       500000 
   17000    80.323246     5000 4.8883693e+13       500000 
   17100    80.823286     5000 4.8756927e+13       500000 
   17200     81.30951     5000 4.8675075e+13       500000 
   17300    81.806611     5000 4.8535973e+13       500000 
   17400    82.311529     5000 4.8741279e+13       500000 
   17500    82.814028     5000 4.8450973e+13       500000 
   17600    83.365451     5000 4.9777397e+13       500000 
   17700    83.888434     5000 4.8148681e+13       500000 
   17800    84.387284     5000 4.7866707e+13       500000 
   17900    84.897507     5000 4.7690252e+13       500000 
   18000    85.398186     5000 4.789238e+13       500000 
   18100    85.903886     5000 4.7972215e+13       500000 
   18200    86.409683     5000 4.7727281e+13       500000 
   18300    86.914735     5000 4.7446389e+13       500000 
   18400    87.421279     5000 4.7014387e+13       500000 
   18500    87.954055     5000 4.7026853e+13       500000 
   18600    88.444475     5000 4.6835805e+13       500000 
   18700    88.989862     5000 4.6950233e+13       500000 
   18800    89.496966     5000 4.6720897e+13       500000 
   18900    89.988616     5000 4.6538415e+13       500000 
   19000    90.490533     5000 4.6618848e+13       500000 
   19100    90.999956     5000 4.6340272e+13       500000 
   19200    91.497059     5000 4.6437992e+13       500000 
   19300    92.004668     5000 4.6421562e+13       500000 
   19400    92.498513     5000 4.6152489e+13       500000 
   19500    93.015781     5000 4.608104e+13       500000 
   19600    93.531976     5000 4.5870995e+13       500000 
   19700    94.036499     5000 4.5678644e+13       500000 
   19800    94.570404     5000 4.5768471e+13       500000 
   19900     95.07001     5000 4.5488611e+13       500000 
   20000      95.5776     5000 4.5626874e+13       500000 
   20100    96.075659     5000 4.5399478e+13       500000 
   20200    96.584264     5000 4.5076113e+13       500000 
   20300    97.092175     5000 4.4897548e+13       500000 
   20400    97.600636     5000 4.6808799e+13       500000 
   20500    98.121888     5000 4.505063e+13       500000 
   20600    98.636998     5000 4.4732541e+13       500000 
   20700    99.124759     5000 4.4900205e+13       500000 
   20800    99.618731     5000 4.4801755e+13       500000 
   20900    100.16194     5000 4.4734331e+13       500000 
   21000    100.68084     5000 4.4441435e+13       500000 
   21100    101.18458     5000 4.4424498e+13       500000 
   21200    101.68506     5000 4.4336446e+13       500000 
   21300    102.18352     5000 4.4249228e+13       500000 
   21400    102.68494     5000 4.4028501e+13       500000 
   21500    103.19338     5000 4.4236556e+13       500000 
   21600    103.70187     5000 4.6329695e+13       500000 
   21700    104.20866     5000 4.3860117e+13       500000 
   21800    104.72336     5000 4.3449423e+13       500000 
   21900    105.23007     5000 4.3391833e+13       500000 
   22000    105.77978     5000 4.3417607e+13       500000 
   22100    106.29559     5000 4.3513818e+13       500000 
   22200    106.81082     5000 4.5515346e+13       500000 
   22300    107.32199     5000 4.3556117e+13       500000 
   22400     107.8131     5000 4.4914359e+13       500000 
   22500    108.33623     5000 4.3081411e+13       500000 
   22600    108.85708     5000 4.2869722e+13       500000 
   22700    109.37695     5000 4.2703739e+13       500000 
   22800     109.8816     5000 4.3772892e+13       500000 
   22900    110.40244     5000 4.2563231e+13       500000 
   23000    110.94099     5000 4.2516581e+13       500000 
   23100    111.48341     5000 4.2365842e+13       500000 
   23200    112.00144     5000 4.2285522e+13       500000 
   23300    112.50147     5000 4.2286779e+13       500000 
   23400    113.00993     5000 4.2278997e+13       500000 
   23500    113.52213     5000 4.2279771e+13       500000 
   23600    114.05054     5000 4.2125605e+13       500000 
   23700    114.55136     5000 4.1932575e+13       500000 
   23800     115.0983     5000 4.1630363e+13       500000 
   23900    115.61826     5000 4.1590056e+13       500000 
   24000    116.13567     5000 4.1561003e+13       500000 
   24100    116.66923     5000 4.3326073e+13       500000 
   24200    117.21877     5000 4.1741825e+13       500000 
   24300    117.74928     5000 4.1706753e+13       500000 
   24400    118.28303     5000 4.1438166e+13       500000 
   24500    118.82227     5000 4.5007947e+13       500000 
   24600     119.3412     5000 4.1946292e+13       500000 
   24700    119.86474     5000 4.2051394e+13       500000 
   24800    120.37877     5000 4.1285398e+13       500000 
   24900    120.89698     5000 4.0875364e+13       500000 
   25000    121.42021     5000 4.4097568e+13       500000 
   25100    121.93769     5000 4.0820801e+13       500000 
   25200    122.49994     5000 4.0542551e+13       500000 
   25300    123.04587     5000 4.0633433e+13       500000 
   25400    123.56926     5000 4.0473791e+13       500000 
   25500    124.10581     5000 4.0393779e+13       500000 
   25600    124.61717     5000 4.0522335e+13       500000 
   25700    125.13324     5000 4.0641849e+13       500000 
   25800    125.66568     5000 4.0673663e+13       500000 
   25900    126.19312     5000 4.0274286e+13       500000 
   26000    126.72173     5000 4.0348146e+13       500000 
   26100    127.25368     5000 4.0368371e+13       500000 
   26200    127.78556     5000 4.0416198e+13       500000 
   26300    128.35572     5000 4.0078753e+13       500000 
   26400    128.87891     5000   3.9761e+13       500000 
   26500    129.42108     5000 4.135375e+13       500000 
   26600    129.95112     5000 4.1447845e+13       500000 
   26700    130.46471     5000 3.963288e+13       500000 
   26800    130.99836     5000 3.9619854e+13       500000 
   26900    131.53426     5000 4.0816637e+13       500000 
   27000    132.07942     5000 3.965498e+13       500000 
   27100    132.58625     5000 3.9796745e+13       500000 
   27200    133.10693     5000 3.961714e+13       500000 
   27300    133.66056     5000 3.9307183e+13       500000 
   27400    134.19859     5000 3.9453471e+13       500000 
   27500    134.72596     5000 3.9245878e+13       500000 
   27600    135.25857     5000 3.9125179e+13       500000 
   27700    135.78602     5000 3.8935372e+13       500000 
   27800    136.30733     5000 3.9407433e+13       500000 
   27900    136.84026     5000 3.9111383e+13       500000 
   28000    137.37542     5000 3.8909397e+13       500000 
   28100    137.90449     5000 3.8874363e+13       500000 
   28200     138.4325     5000 3.9038053e+13       500000 
   28300    138.98227     5000 3.8524423e+13       500000 
   28400    139.54116     5000 3.8860843e+13       500000 
   28500     140.0886     5000 3.8554923e+13       500000 
   28600    140.62228     5000 3.8346633e+13       500000 
   28700    141.15226     5000 3.8528946e+13       500000 
   28800    141.67918     5000 3.9539728e+13       500000 
   28900    142.22607     5000 3.9216742e+13       500000 
   29000    142.77735     5000 3.8318397e+13       500000 
   29100    143.31378     5000 3.8660213e+13       500000 
   29200    143.84185     5000 3.8416311e+13       500000 
   29300    144.37172     5000 3.8522777e+13       500000 
   29400    144.96147     5000 3.8579528e+13       500000 
   29500    145.51658     5000 3.8437581e+13       500000 
   29600    146.04682     5000 3.8091043e+13       500000 
   29700    146.59149     5000 3.8449042e+13       500000 
   29800    147.14489     5000 3.8067223e+13       500000 
   29900     147.6938     5000 3.7849967e+13       500000 
   30000    148.25373     5000 3.7840391e+13       500000 
   30100    148.79087     5000 4.0083685e+13       500000 
   30200    149.32715     5000 3.798128e+13       500000 
   30300    149.88482     5000  3.78325e+13       500000 
   30400    150.44947     5000 3.7928585e+13       500000 
   30500    150.99405     5000 3.788534e+13       500000 
   30600    151.52697     5000 3.8034753e+13       500000 
   30700    152.05637     5000 3.7890565e+13       500000 
   30800    152.59518     5000 3.8128258e+13       500000 
   30900    153.13788     5000 3.8163883e+13       500000 
   31000    153.70324     5000 4.053745e+13       500000 
   31100     154.2438     5000 3.7957188e+13       500000 
   31200    154.80092     5000 3.7859862e+13       500000 
   31300     155.3328     5000 3.8128918e+13       500000 
   31400    155.89009     5000 3.7793252e+13       500000 
   31500    156.45198     5000 3.7601509e+13       500000 
   31600     156.9977     5000 3.837779e+13       500000 
   31700    157.54882     5000 3.7630093e+13       500000 
   31800    158.10022     5000 3.7443404e+13       500000 
   31900    158.64533     5000 3.8182177e+13       500000 
   32000    159.17965     5000 3.7711228e+13       500000 
   32100     159.7288     5000 3.8989605e+13       500000 
   32200     160.2784     5000 3.7732212e+13       500000 
   32300    160.80809     5000 3.7836721e+13       500000 
   32400    161.35748     5000 3.7602009e+13       500000 
   32500    161.94344     5000 3.7338069e+13       500000 
   32600     162.4856     5000 3.7533816e+13       500000 
   32700    163.02925     5000 3.7580426e+13       500000 
   32800    163.57636     5000 3.7696929e+13       500000 
   32900    164.10426     5000 3.7369641e+13       500000 
   33000    164.66286     5000 3.7390644e+13       500000 
   33100    165.22353     5000 3.7329926e+13       500000 
   33200    165.76604     5000 3.7777465e+13       500000 
   33300    166.30935     5000 3.7360693e+13       500000 
   33400    166.89804     5000 3.7244712e+13       500000 
   33500    167.43442     5000 3.7538266e+13       500000 
   33600    167.97819     5000 3.9903636e+13       500000 
   33700    168.53305     5000 3.7381401e+13       500000 
   33800     169.0834     5000 3.7480463e+13       500000 
   33900    169.63982     5000 3.713674e+13       500000 
   34000    170.18687     5000 3.7395066e+13       500000 
   34100     170.7368     5000 3.7338702e+13       500000 
   34200    171.28081     5000 3.7648315e+13       500000 
   34300    171.82723     5000 3.7610324e+13       500000 
   34400    172.40637     5000 3.7377213e+13       500000 
   34500    172.96995     5000 4.0142753e+13       500000 
   34600    173.51205     5000 3.7802931e+13       500000 
   34700    174.04174     5000 3.767308e+13       500000 
   34800    174.58158     5000 3.8049885e+13       500000 
   34900    175.13829     5000 3.8098005e+13       500000 
   35000    175.69018     5000 3.8331241e+13       500000 
   35100    176.23678     5000 4.0207349e+13       500000 
   35200    176.78889     5000 3.8003644e+13       500000 
   35300    177.34354     5000 3.8059765e+13       500000 
   35400      177.922     5000 3.8096671e+13       500000 
   35500    178.48538     5000 3.774288e+13       500000 
   35600    179.03808     5000  3.89698e+13       500000 
   35700    179.59633     5000 3.7787531e+13       500000 
   35800    180.15538     5000 3.7897915e+13       500000 
   35900    180.70724     5000 3.8560455e+13       500000 
   36000    181.26084     5000 3.7961066e+13       500000 
   36100    181.80145     5000 3.8022888e+13       500000 
   36200    182.33364     5000 3.9503513e+13       500000 
   36300    182.88721     5000 3.775751e+13       500000 
   36400    183.44911     5000 4.0965083e+13       500000 
   36500    184.04137     5000 3.9027823e+13       500000 
   36600    184.59037     5000 3.7612902e+13       500000 
   36700    185.12542     5000 3.7783813e+13       500000 
   36800    185.66918     5000 3.9813467e+13       500000 
   36900    186.22106     5000 3.8491853e+13       500000 
   37000    186.77717     5000 3.7689769e+13       500000 
   37100    187.32213     5000 3.7969444e+13       500000 
   37200    187.87724     5000 4.0379305e+13       500000 
   37300    188.40336     5000 3.8271703e+13       500000 
   37400    188.97277     5000 3.805315e+13       500000 
   37500    189.55727     5000 3.8195495e+13       500000 
   37600    190.11067     5000 3.8396551e+13       500000 
   37700    190.65697     5000 3.867746e+13       500000 
   37800    191.19803     5000 4.1235409e+13       500000 
   37900    191.74629     5000 3.8024442e+13       500000 
   38000    192.29083     5000 3.8264352e+13       500000 
   38100    192.82353     5000 4.1121599e+13       500000 
   38200    193.35809     5000 3.8487034e+13       500000 
   38300    193.89115     5000 3.8483978e+13       500000 
   38400    194.44852     5000 4.125269e+13       500000 
   38500     195.0703     5000 3.8536693e+13       500000 
   38600    195.60807     5000 3.8330767e+13       500000 
   38700     196.1594     5000 3.9744581e+13       500000 
   38800    196.69779     5000 4.2245895e+13       500000 
   38900    197.25221     5000 3.9213915e+13       500000 
   39000    197.80772     5000 3.8803013e+13       500000 
   39100    198.35156     5000 3.9024336e+13       500000 
   39200    198.89041     5000 3.901832e+13       500000 
   39300    199.42927     5000 3.9635223e+13       500000 
   39400    200.00554     5000 3.8831785e+13       500000 
   39500     200.5619     5000 3.9015284e+13       500000 
   39600    201.10689     5000 3.9084029e+13       500000 
   39700    201.65901     5000 3.9544842e+13       500000 
   39800    202.21407     5000 3.9152092e+13       500000 
   39900    202.75572     5000 4.0538036e+13       500000 
   40000    203.30544     5000 3.926053e+13       500000 
   40100    203.84181     5000 3.916818e+13       500000 
   40200    204.38751     5000 3.9968128e+13       500000 
   40300    204.93631     5000 3.9676554e+13       500000 
   40400    205.52635     5000 3.9276001e+13       500000 
   40500    206.08245     5000 3.9398291e+13       500000 
   40600      206.651     5000 3.964691e+13       500000 
   40700     207.2071     5000 3.9162819e+13       500000 
   40800    207.76418     5000 4.1069274e+13       500000 
   40900    208.34461     5000 4.2824582e+13       500000 
   41000    208.89812     5000 3.9534114e+13       500000 
   41100    209.44956     5000 3.9944463e+13       500000 
   41200    209.99071     5000 3.9759382e+13       500000 
   41300    210.54681     5000 3.9869556e+13       500000 
   41400     211.1471     5000 4.1188282e+13       500000 
   41500    211.69754     5000 4.0994726e+13       500000 
   41600    212.24428     5000 3.9936149e+13       500000 
   41700    212.79669     5000 3.9946792e+13       500000 
   41800    213.33694     5000 4.0154258e+13       500000 
   41900    213.87872     5000 3.9912024e+13       500000 
   42000     214.4395     5000 4.1144341e+13       500000 
   42100    214.97892     5000 4.0298563e+13       500000 
   42200    215.51712     5000 4.0222538e+13       500000 
   42300    216.06192     5000 4.0325818e+13       500000 
   42400    216.63576     5000 4.3790674e+13       500000 
   42500    217.20892     5000 4.088653e+13       500000 
   42600    217.74624     5000 4.0486738e+13       500000 
   42700    218.29087     5000 4.0897251e+13       500000 
   42800     218.8383     5000 4.0548845e+13       500000 
   42900    219.38323     5000 4.0426221e+13       500000 
   43000    219.95091     5000 4.0551719e+13       500000 
   43100    220.48201     5000 4.0633041e+13       500000 
   43200    221.01939     5000 4.0638755e+13       500000 
   43300    221.55253     5000 4.0506034e+13       500000 
   43400     222.1261     5000 4.0877561e+13       500000 
   43500    222.70326     5000 4.2177645e+13       500000 
   43600    223.25388     5000 4.102814e+13       500000 
   43700    223.81729     5000 4.0844908e+13       500000 
   43800    224.35882     5000 4.114508e+13       500000 
   43900    224.90288     5000 4.4158465e+13       500000 
   44000    225.48807     5000 4.1033602e+13       500000 
   44100    226.04058     5000 4.1021656e+13       500000 
   44200    226.59112     5000 4.1192909e+13       500000 
   44300    227.14357     5000 4.1585756e+13       500000 
   44400    227.70453     5000 4.2534208e+13       500000 
   44500    228.28801     5000 4.1288768e+13       500000 
   44600     228.8384     5000 4.135099e+13       500000 
   44700    229.38897     5000 4.1704353e+13       500000 
   44800    229.93129     5000 4.1655886e+13       500000 
   44900     230.4875     5000 4.1530248e+13       500000 
   45000    231.03658     5000 4.2796731e+13       500000 
Loop time of 231.037 on 1 procs for 45000 steps with 5000 atoms

99.8% CPU use with 1 MPI tasks x no OpenMP threads

MPI task timing breakdown:
Section |  min time  |  avg time  |  max time  |%varavg| %total
---------------------------------------------------------------
Pair    | 34.191     | 34.191     | 34.191     |   0.0 | 14.80
Neigh   | 1.2302     | 1.2302     | 1.2302     |   0.0 |  0.53
Comm    | 0.042924   | 0.042924   | 0.042924   |   0.0 |  0.02
Output  | 1.0044     | 1.0044     | 1.0044     |   0.0 |  0.43
Modify  | 193.7      | 193.7      | 193.7      |   0.0 | 83.84
Other   |            | 0.8674     |            |       |  0.38

Nlocal:    5000 ave 5000 max 5000 min
Histogram: 1 0 0 0 0 0 0 0 0 0
Nghost:    0 ave 0 max 0 min
Histogram: 1 0 0 0 0 0 0 0 0 0
Neighs:    20451 ave 20451 max 20451 min
Histogram: 1 0 0 0 0 0 0 0 0 0

Total # of neighbors = 20451
Ave neighs/atom = 4.0902
Neighbor list builds = 1266
Dangerous builds = 132
Total wall time: 0:03:51
