LAMMPS (17 Jan 2018)
###############################################
# General settings
###############################################

log         gran_1.log
